#BIOSYM hessian 1
@Type: Hessian Update
@Units
 distance: 	A
 energy: 	Kcal/Mol
#header
@natom 70

#label
C1      C2      C3      C4      C5      C6      C7      C8      C9      C10     C11     C12     C13     C14     C15     C16     C17     C18     C19     C20     C21     C22     C23     H24     C25     C26     C27     C28     C29     C30     C31     C32     C33     C34     C35     C36     C37     C38     C39     C40     C41     C42     C43     C44     C45     C46     C47     C48     C49     H50     H51     H52     H53     H54     H55     H56     H57     H58     H59     H60     H61     H62     H63     H64     H65     H66     O67     H68     O69     H70

#element
C  C  C  C  C  C  C  C  C  C  C  C  C  C  C  C  C  C  C  C  C  C  C  H  C  C  C  C  C  C  C  C  C  C  C  C  C  C  C  C  C  C  C  C  C  C  C  C  C  H  H  H  H  H  H  H  H  H  H  H  H  H  H  H  H  H  O  H  O  H 

#matrix
210
 2.773303108792E+03
 -1.996455476152E+01 2.794589458988E+03
 3.499661906815E+01 -1.661852808031E+01 1.936781291744E+02
 3.604413999581E+01 6.776612814767E+01 -1.672826189909E+00 2.805824242687E+03
 3.032630469762E+00 -4.924422254569E+00 8.073466491832E-01 -2.925696691827E+01 2.749296844600E+03
 3.310978991433E-01 1.570141339984E+00 9.570316402425E+00 1.895483520070E+01 -3.482461557120E+01 1.951237483800E+02
 -1.910278376553E+01 3.432114796587E+01 -1.032736157015E+00 1.837669899457E-01 1.191390012801E-01 4.908466739662E-01 2.808826974753E+03
 -3.160112720925E+01 5.852252609474E+01 -1.300382969051E+00 -9.632156260646E-02 -1.711467684023E+00 6.525787431954E-02 2.559508754490E+01 2.748839688090E+03
 -8.399456975725E-01 3.112993101994E-01 1.010177818558E+01 -4.203588403476E-01 1.468844445592E-01 7.581914506450E-01 3.906908222123E+01 -3.270516896526E+01 1.911827493871E+02
 3.591930779374E+01 -6.683967857037E+01 1.862613591268E+00 -1.914586846775E+01 3.576079841408E+01 -1.035405593878E+00 4.067367575160E+01 6.765336203161E+01 -9.984330135276E-01 2.802831664308E+03
 -2.527656632107E-01 9.457985966427E-01 -1.855393234430E-01 -3.273344055811E+01 5.893422909746E+01 -1.698448978530E+00 -7.714738754217E-01 2.292666760268E-01 3.197923640457E-02 1.442830653347E+00 2.804110153866E+03
 4.197816132431E-01 -5.339222692277E-01 1.099462392794E+01 -5.430194345627E-01 -4.359805034173E-01 1.111688769277E+01 8.174438012969E-01 1.380219898944E+00 1.248495685806E+01 3.638913634906E+01 -3.930589404670E+01 1.988511907798E+02
 -4.785400020555E-01 -3.561809286556E-01 -2.162753574969E-01 5.684223690837E-01 1.174568022444E-02 -2.750669396814E-01 5.062461497630E+01 -8.483869512014E+01 2.037784398406E+00 -2.079081202611E+01 3.747973892437E+01 -1.204050216999E+00 2.608785078219E+03
 3.940821347112E-01 4.062523768594E-01 2.765728741688E-01 -1.083312063411E+00 -4.143547486083E-01 -3.319755709995E-01 -8.574555647412E-01 3.258766456485E+00 -1.156399088548E-01 -3.608112289207E+01 6.309542854855E+01 -1.403448819703E+00 -1.723872419786E+02 3.056819995650E+03
 -6.528960363886E-01 3.518921874656E-01 3.552869475971E+00 -8.931718992937E-01 3.392419337371E-01 2.630072067311E+00 4.833223224254E-01 -8.757757345021E-01 1.809753682238E+01 -2.069896340794E-01 -1.985798169194E-01 1.651587445497E+01 3.660479245037E+01 -4.795759898483E+01 1.617448620835E+02
 -1.212845397288E+03 4.428644122666E+02 -1.596792206715E+01 -4.525166128697E+02 -2.153609960312E+01 -5.682169804264E+00 4.708653994116E-01 -2.473699807906E+00 4.782233941901E-01 1.804964651912E+00 -5.272571488621E-01 4.668195897667E-01 1.530437869190E+00 -2.223708354282E+00 4.239357375393E-01 2.811350976357E+03
 4.395960511470E+02 -7.412752871556E+02 9.256434691754E+00 -1.628479000711E+01 -1.400337396241E+03 1.454657771258E+01 -3.889387184094E-02 1.662407062794E+00 5.966601260654E-02 1.217861655552E-02 5.507430622965E-01 -9.478788650698E-01 1.823304553275E-01 5.217668838531E-01 -4.963378628362E-01 1.024295870724E+01 2.739206355436E+03
 -1.772569454374E+01 1.081737907313E+01 -8.256255374458E+01 -3.250108147194E+00 1.469428377278E+01 -7.887793859692E+01 -1.301565013615E-01 1.413320475710E-01 5.188941498515E+00 1.445481616044E-01 8.592213319747E-01 -7.534821673447E+00 -3.550649283499E-02 1.140082495764E-01 1.771005867368E+00 3.344780312648E+01 -2.078003788740E+01 1.913383905122E+02
 -1.197866851171E+03 -4.084742632739E+02 -1.317748458523E+01 2.792237431889E+00 -1.720731891023E+00 -2.579833888021E-01 -1.236582237579E+03 4.445809818265E+02 -2.224393814612E+01 -4.687774053163E+02 -1.376467402374E+01 -6.469276913629E+00 8.909005882231E-01 -1.428978918597E+00 3.379920048037E-01 -2.224837989747E+01 -3.150335216838E+01 3.167082782009E-01 2.792407191393E+03
 -4.059003963744E+02 -6.824823591541E+02 1.445860885824E-01 -7.064950663464E-01 3.042679013355E-01 -1.072230835777E-01 4.551806941554E+02 -7.390431809362E+02 1.533369032275E+01 -1.735264919998E+01 -1.456417057133E+03 1.979440400492E+01 -9.591548168393E-01 1.802390065948E+00 -3.268575146622E-01 3.384351953055E+01 5.810704665604E+01 -3.532030294157E-01 -2.780628089168E+01 2.762620638861E+03
 -1.182643860850E+01 -1.682493005746E+00 -7.991985352593E+01 2.490846562733E-01 -2.457157385830E-01 -7.315712559411E+00 -2.412650256276E+01 1.577905265191E+01 -8.025050399076E+01 -6.118838950867E+00 1.914954691024E+01 -8.055293212846E+01 3.044492169347E-01 1.890538476651E-01 -6.307642164657E+00 8.104840020727E-02 -3.283984944026E-02 9.032435063180E+00 4.093895402573E+01 -3.400158708567E+01 1.956834798930E+02
 9.918169132727E-01 4.254978508404E-01 4.125052558786E-01 -1.228787542912E+03 -4.158842221831E+02 -3.706373915271E+00 3.224554934118E-01 -1.531084118931E+00 1.583759558849E-01 -1.209059594498E+03 4.393317637708E+02 -2.152392852940E+01 1.543984215399E+00 -2.317677369760E+00 -5.111664704101E-02 3.547444347197E+01 -1.919456530480E+00 -7.920622624314E-01 4.054980874036E+01 -2.066596363278E+00 1.437377713688E+00 2.805370182411E+03
 -2.659357334870E+00 2.141981393010E+00 -5.650350876401E-02 -4.244903596111E+02 -6.962167059472E+02 5.628450218717E+00 -1.469314016002E-01 1.809107717847E+00 -1.964778370040E-03 4.423331538245E+02 -7.390284886597E+02 1.757183912079E+01 -8.651750895328E-01 1.419862904209E+00 -3.285262541646E-01 -6.332650143928E+01 -7.169438852673E-01 -3.725089138738E-01 6.839001130010E+01 -3.574431210233E-01 6.839698982939E-01 2.930500901303E+00 2.792021021856E+03
 2.683371899269E-02 -7.617095393529E-01 -9.199750685285E+00 -1.794826570612E+00 4.328670482037E+00 -8.085787060297E+01 -3.710705411143E-01 1.090672577415E-01 6.993418902668E+00 -2.190337037097E+01 1.689153771508E+01 -8.058300730905E+01 1.682689520771E-01 7.625722299544E-02 8.586165919119E+00 6.280799908435E-01 6.247754796967E-01 9.862654495149E+00 -3.348684205117E-01 -3.782626324801E-01 1.219842222368E+01 2.927971088224E+01 -4.998853106634E+01 2.009087818753E+02
 -5.119825735807E-01 7.656561037665E-01 -5.095158873726E-02 -7.188045614717E-02 1.249566431992E+00 -2.715128895986E-01 -1.246515650674E+03 -4.443199132220E+02 -1.160554429363E+01 6.266846652555E-01 -3.844344708536E-01 -5.707464990725E-02 -5.665632244347E+02 -1.652744012950E+01 -7.078641079463E+00 1.174562999663E+00 -1.123672923503E+00 9.561394801773E-02 -2.108320806373E+01 -3.720099118050E+01 2.911755814648E-01 4.243488447059E-01 -8.053349947742E-01 1.202913777299E-01 2.606856725483E+03
 -1.413885010707E+00 1.343532594918E+00 -1.801762490067E-01 -2.736029088017E+00 1.104167495049E+00 1.470323401291E-01 -4.598981382601E+02 -7.653041037699E+02 2.502537247877E+00 -2.113725161830E+00 1.841186802906E+00 -6.389097328738E-02 -2.726286357199E+01 -1.810131880015E+03 2.733482153556E+01 8.011888224276E-01 2.398005227651E-02 -5.739602183436E-03 3.581980054948E+01 6.291981168042E+01 -5.776398138707E-01 -1.831849873529E+00 1.130705092872E-01 1.612788510989E-02 1.933938858858E+02 3.028978537460E+03
 -5.706618441353E-01 2.043104398758E-01 6.896731660275E+00 -3.795043486414E-01 1.947310669934E-01 8.090596744154E-01 -1.033055503297E+01 3.101619020371E+00 -7.256359815001E+01 1.974983911839E-01 -5.413958287798E-02 -5.821379215242E+00 -6.796296071352E+00 2.735845074975E+01 -6.406966420101E+01 -5.083190606676E-02 -2.878207278839E-01 8.096975341168E-01 -1.029491111178E+00 -1.345466857584E+00 1.251595809827E+01 -6.329951614526E-01 -2.492420479120E-01 2.892713140422E+00 3.236044125518E+01 -4.052711426224E+01 1.605407976725E+02
 1.860126994025E+00 -8.927470060755E-01 -3.499508211259E-01 2.490221603087E+00 -3.312273507093E-01 5.128298675170E-01 2.858328046561E-01 -1.697104666401E+00 1.743835818334E-01 -1.236324477864E+03 -4.339190786100E+02 -9.619437381631E+00 -1.260947985099E+03 4.666467715294E+02 -2.330092475867E+01 -1.662299445173E+00 -5.535346593839E-01 -1.682600402942E-01 3.879651568128E+01 -1.830669583096E+00 -1.229413771028E-01 -1.928875639744E+01 -3.361723560058E+01 -1.375081285160E-01 5.310949083394E+01 -2.530923883989E+00 8.143186032994E-01 2.857659234720E+03
 -1.377045314121E+00 1.295320712764E+00 -1.908170185581E-01 -2.404776248067E+00 1.104716542318E+00 -1.130076436277E-01 -3.338740326508E-01 2.421684374132E+00 -4.745692348564E-02 -4.321890239383E+02 -7.231192982710E+02 3.559740610691E+00 4.570774703701E+02 -7.926988418980E+02 1.726899392606E+01 6.519274216330E-01 -2.020268689211E-01 -3.430280824630E-01 -6.867147641954E+01 2.222174701861E+00 -1.078952973909E+00 3.417144800547E+01 5.955209063341E+01 -4.637619597175E-02 8.371910169355E+01 9.918166631532E-01 1.652837527107E+00 -3.954000297952E+01 2.882692486455E+03
 2.155470638244E-01 -3.200241624781E-01 5.018399394951E+00 -3.931250002762E-02 -2.213788613125E-01 7.281567752725E+00 -1.096258396205E-01 -4.775397620160E-01 -6.253936545241E+00 -9.528217867794E+00 3.295058085570E+00 -8.105156428588E+01 -2.323017408039E+01 1.779191119670E+01 -7.217148109439E+01 3.260808472420E-01 3.311304244106E-01 1.119284714570E+00 1.329646887301E+00 3.204709636430E-01 1.474988255611E+01 -6.947988419738E-01 -1.343139011663E+00 1.460546502404E+01 -6.045310766653E-01 8.155844862823E-02 1.656086034060E+01 3.774921361512E+01 -4.459812005579E+01 1.948794866948E+02
 -2.007849986332E+01 1.579947889536E+01 -4.021042627171E-01 -2.033807878111E+01 2.119158290105E+01 -5.053619811269E-01 -3.064510373646E+00 8.018470676589E+00 -1.933822894261E+00 -2.838896467469E+00 1.324855998688E+00 -7.818863328327E-01 -1.408146195941E+00 4.617934600921E+00 -2.457642065950E+00 3.433227708247E+01 -1.298794384349E+01 -7.128675764286E-01 1.131759687945E+01 5.441551860548E-02 -7.699627133665E-01 2.354756472340E+00 -9.004399059481E+00 -1.139285753755E+00 -3.346629696482E+00 -3.881934137045E+00 9.330843757997E-01 4.606488323307E+00 -6.210357739087E+00 1.952811686750E+00 2.700802558977E+03
 1.080016534421E+01 -9.935216017057E+00 -1.561892626861E+00 1.234341394406E+01 -1.087705013113E+01 9.785849760855E-02 3.078183266478E+00 -6.985769078872E+00 1.223428135606E+00 3.285386428463E+00 -2.019834124733E+00 1.005422184479E-01 2.483166681672E+00 -5.805028397504E+00 2.658460312200E-01 -1.690107370667E+01 8.672095333573E+00 -1.381652867661E-03 -4.583077294306E+00 -1.237551862734E+00 5.398258124541E-01 2.094876333146E+00 2.592121927881E+00 1.148157646610E+00 3.143107672081E+00 -1.320251491153E+00 -2.177413714438E+00 7.619079407924E-01 1.115283513428E+00 -2.083443457639E+00 1.011002714216E+02 2.667575001491E+03
 -3.932485791117E-01 -6.743178211549E-01 -2.842958678601E+00 -6.062738675239E-01 1.838356218363E+00 -1.814010714092E+00 -4.752089429815E-01 2.856850586564E-01 -2.350415836099E+00 -1.573059544967E+00 4.161408697948E-01 -2.416770903901E+00 -1.328002454569E+00 4.221685331141E-01 -3.184724004680E+00 -1.074838799644E+00 -9.173343748068E-01 4.353802403132E+00 -6.974829798790E-01 1.403966607730E-01 -1.045822126705E+00 -5.870579216448E-01 -1.454335585636E+00 2.828868111207E+00 -9.334980233209E-01 5.318825824469E-01 -2.808276848399E+00 -7.330243955332E-01 2.822971248407E-01 -1.200568641630E+00 1.987857235306E+01 2.530856894892E+01 2.749707465360E+02
 -3.344358690116E+01 1.398795211641E+01 -4.393172487746E+00 -2.092231544640E+01 9.978596073433E+00 -2.554540767419E+00 -3.365694308241E+00 8.378733697984E+00 6.070480584073E-01 -7.485378736794E+00 1.280051555438E+00 -3.684595969012E+00 -5.160981800932E+00 7.684584455102E+00 -3.420687725867E+00 5.599629684535E+01 -8.328599821525E-01 1.809291619473E-01 1.658411522387E+01 1.574301292518E+00 2.949245126857E+00 1.116320095049E+01 -1.360398960604E+01 5.350760541713E+00 -1.764126624747E+00 -1.150594512984E+01 -2.388883336642E+00 1.042007933069E+01 -1.059347364316E+01 5.779597175781E+00 -1.147985055491E+02 1.669762500264E+02 1.079157603765E+01 2.011493113543E+03
 -1.588788189961E+01 1.574638557146E+01 3.965018494519E-01 -1.798159939457E+01 2.316704881814E+01 5.699314174296E-01 -1.430336622441E+00 3.934478725617E+00 -1.149048441350E+00 -1.628829701777E+00 -1.409231708116E+00 -1.580212560937E+00 3.754636521405E-01 -2.362625688376E-02 3.336486165955E+00 2.908201801043E+01 -1.663425073309E+01 -2.789892076126E-01 9.354964534431E+00 -1.798622824488E+00 1.563004334848E+00 2.733233766618E+00 -8.220531945664E+00 3.732614646323E-01 -3.604720231349E+00 -4.257083639717E+00 2.041419837414E+00 5.624605280989E+00 -5.309982838952E+00 7.371903790090E-01 -1.663222562664E+02 7.901303385363E+01 2.070677542152E+01 2.757368709484E+02 2.420024472406E+03
 2.993518587263E+00 -1.073349414569E+01 -3.813681846202E-01 3.455577626035E+00 -4.090603397985E+00 4.562691123613E+00 1.109515827355E+00 -3.146725822589E+00 -1.485944047105E+00 -2.504062480594E+00 1.731044694193E+00 2.646805922811E+00 -2.653703709040E+00 -1.323718297938E+00 -2.932502183943E+00 -3.657653388024E+00 1.056323118877E+01 1.239500955652E+00 2.327164062336E+00 3.746476724970E+00 -2.890834580111E+00 7.036784202503E+00 -3.654002816610E+00 -1.076988948703E+00 2.238384746924E+00 8.269986343994E-02 -8.685925695064E+00 5.400742694307E+00 -1.309663236258E+00 -5.950912172681E+00 5.804072875278E+00 -4.150934626041E+01 1.825883771514E+01 4.363928224101E+02 -2.191870300304E+02 9.847855350078E+02
 -2.993126919171E+01 -3.147520541663E+01 -1.949898292155E+00 2.985631063133E+01 2.759917177133E+00 5.460640339607E-01 -8.109884420552E-01 1.592060244398E+00 -6.668013765954E-01 -2.787678601753E+00 1.714355806712E-01 -8.346608756633E-01 -2.084429304879E+00 1.746514364348E+00 -1.422732327571E+00 -1.244371944032E+03 -4.355490754295E+02 -1.223893434477E+01 5.551382642408E+00 8.422336985789E-01 -3.588547483260E-01 4.761112643066E+00 -4.232904909544E+00 1.393836404467E+00 3.384631566968E-02 -3.081578836747E+00 -7.994978949177E-01 4.503028042427E+00 -3.043400210807E+00 6.740724358467E-01 -6.173110851395E+01 5.573054175714E+01 2.379545045123E-01 -9.914989694693E+01 -2.124589076687E+01 -1.087741334346E+01 2.747982747807E+03
 3.957547544312E+01 5.769476522121E+01 1.686091973858E+00 -6.328535759210E+01 -4.245775733663E+00 7.312354576234E-01 4.590534312262E-01 -1.698883193285E+00 -1.286059980906E-01 1.725919100080E+00 -2.285472960131E-01 1.101540705748E+00 9.155269236597E-01 -1.310483315158E+00 6.354739766940E-01 -4.501043854220E+02 -7.080203879912E+02 -5.748727431760E+00 -1.755597312106E+00 -7.660339948300E-01 -1.598112884334E+00 -5.834273850250E-01 2.021714518993E+00 -1.414186760635E+00 1.079553115808E+00 -3.839996867814E-01 5.894512726393E-01 -5.003829862364E-01 6.668837680298E-01 -1.705267887194E+00 -4.975101423636E+00 4.182583692770E+01 -5.275483112779E+00 2.755645389001E+01 2.127183002327E+01 -4.614075370755E+00 3.753464156934E+01 2.780706855410E+03
 -9.107831363245E-01 -2.364695289087E+00 8.801367169517E+00 1.103728664607E+00 -4.503570560493E-02 9.478157402102E+00 -4.212338448545E-01 -8.860827330077E-01 -4.471906460093E-01 -1.130605591876E+00 3.688280729943E-01 -7.378477968429E-01 -1.990529136339E-01 -2.563936618763E-01 -4.455451399295E-01 -1.281484110694E+01 -2.265301703602E+00 -8.160661142404E+01 1.082640242731E+00 3.030417811912E-01 5.502393743900E+00 4.988921871476E-01 -7.320719257278E-01 5.922878361191E+00 1.436115831437E-01 5.270332729185E-01 -1.516540329780E+00 1.842880963883E-01 -4.856107531505E-01 4.538788381772E-01 -8.301796293593E-01 -1.970421088781E-01 9.834056376006E+00 3.676575954121E+00 3.994125667645E+00 1.424263218954E+00 2.696664093323E+01 8.144936288803E+00 1.923945030400E+02
 -1.420819454315E+01 1.385860917152E+01 4.110356923293E-01 -2.660045631501E+01 -2.012577986130E+01 -1.167126786526E+00 8.231000418292E-01 2.224630627970E+00 -1.557421948151E+00 3.464380141501E-02 -1.435284244636E+00 5.871646707848E-01 5.825293463361E-01 3.994309301062E-01 -6.297871729234E-01 2.245080751655E+01 -6.627936674642E+00 6.748531509178E-01 4.699433188768E+00 -5.781898092490E-01 -1.974802028585E+00 1.085275581757E-01 -5.620009391236E+00 -2.106513833566E+00 -2.056448363672E+00 -4.116734317964E+00 1.309273573352E+00 4.149379885313E+00 -1.801898115456E+00 -1.460826674319E+00 -1.993959579439E+01 -4.005113519688E+01 8.448791089560E+00 -8.464278234541E+01 -3.253640436854E+01 5.836752081307E+01 1.661443340439E+01 8.014501045703E+01 -9.950679791870E-01 2.720427245090E+03
 1.361979064468E+01 -1.354475331601E+01 9.958762373484E-01 4.538696629491E+01 4.131108825052E+01 -7.185239561163E-01 -2.669815386511E-01 -5.096257306123E+00 6.971949668168E-01 1.703217767334E+00 -8.467388714534E-01 -7.306340593575E-02 1.094252661895E+00 -3.235965245388E+00 1.096505202486E+00 -1.921971942717E+01 8.757316175576E+00 2.757640933660E-01 -4.449502955786E+00 -7.965610543324E-01 5.999591264120E-01 1.917503799959E+00 7.429796354015E+00 2.484594890189E-01 3.236750931082E+00 1.654372625940E+00 4.564985321734E-01 -1.679903600548E+00 6.134376773131E-01 8.915872715446E-01 4.421686790194E+01 -1.872404761744E+01 5.147206351936E+00 1.143925136993E+00 1.394069750215E+02 -1.394929317667E+01 1.811780899142E+01 -1.034509400117E+01 1.551568000343E+00 -1.652734842102E+01 2.704799323872E+03
 3.512559329336E+00 -1.958685525379E+00 -2.912825412046E+00 1.698391114698E+00 -6.242435992738E+00 7.917142158310E+00 4.788390826537E-01 -1.655429897195E+00 -7.447616953752E-01 -6.532208198950E-01 -1.881315452075E+00 -6.076873526147E-01 -1.512760120572E-01 -1.436489971119E+00 -2.082720267835E+00 -4.402237868135E+00 9.327696266271E-01 -8.339225451937E+00 -6.825684182587E-01 7.985022226936E-01 1.807670440467E+00 3.071982710787E+00 1.948786369622E+00 9.201304376514E+00 2.046008024827E-01 1.456174397862E+00 -2.566757773241E+00 1.083017489111E+00 7.595113111936E-01 2.498772970019E+00 -2.727931672414E+00 4.559252264587E+00 1.838389905792E+01 3.868578379256E+00 -1.180033872779E+01 1.007606640412E+01 3.866146821001E+00 3.541782580998E-01 1.070096803372E+01 -5.345840594958E+01 1.043446210026E+01 1.994847903007E+02
 -2.689797473749E-01 -6.149979183615E+00 -2.114575105439E+00 4.761374539410E+00 -1.251599073111E+01 -3.835245945961E+00 3.698521810664E+00 -4.478261488290E+00 1.509192826905E+00 -2.424223185665E-01 -7.892836561046E-01 1.460330005157E+00 -2.052260637144E+00 -9.577861421635E-01 -2.053385609570E-01 -5.271340823712E+00 1.224821249492E+01 9.447927327658E-01 -2.244850276765E+00 1.391179335645E+00 -1.438178290043E+00 1.496096226882E+00 -1.410687365725E+00 7.175751000351E+00 1.796988031980E+00 -2.507670022173E+00 4.804382555703E-02 3.996359346230E+00 2.154866222437E+00 -1.857920286917E+00 -1.098494880366E+03 3.058164068449E+02 4.167412328022E+01 -3.209957175057E+02 1.968190305056E+02 -4.863455871739E+01 1.324609169516E+01 -2.309475632942E+01 -1.849560206961E-01 2.830716563255E+00 1.143492573391E+01 2.153501691151E+01 2.105502534533E+03
 -6.685267734715E+00 -1.651687182918E+00 3.269612720919E+00 6.449736918565E+00 -1.642861638758E+01 4.454054771830E-01 -1.445143306358E+00 -2.900267234670E+00 -1.296502505652E+00 -2.223157428066E+00 -1.251262297686E+00 8.927883920605E-03 -2.221026912366E+00 5.251871968773E-01 4.246621079123E+00 1.251253693962E+01 1.154885613688E+01 6.913032589236E-02 9.590785061521E-01 -2.743410827547E-01 -4.209042078549E-01 5.321500276644E+00 1.257393638283E+00 -6.035828654115E-01 2.814012421051E+00 -3.225708317165E+00 3.871703157136E+00 4.716147587125E+00 -1.972038152777E+00 6.737244315314E-01 4.721859706686E+02 -8.682136654526E+02 2.804819981763E+01 -1.096850783655E+02 -1.500938836534E+03 -2.210033402492E+01 -3.692510505576E+01 3.787516351543E+00 3.263093665278E-01 6.851114733409E+00 -1.226727899141E+01 -1.113368659799E+01 -3.023902953536E+02 2.853700458845E+03
 -2.911851165193E+00 2.058621241450E+00 -2.583569787240E+00 7.200946180508E-01 -1.282592227202E+00 1.565782955229E+00 -4.162503240743E-01 -3.621184757951E-01 -2.216205193188E+00 -3.533182897089E-01 -1.256437086282E+00 -2.649747770733E+00 1.081622328454E+00 1.113239051980E+00 -1.771683173570E+00 7.140056487740E+00 -1.506781126460E-01 2.719695225823E-01 8.232281969067E-01 5.510148740267E-01 1.167094913973E+00 4.524509625293E-01 2.390539047915E+00 2.204382693536E+00 2.730557696407E-01 2.784885163345E-01 -5.587351551027E+00 6.985323586946E-01 7.124636707645E-01 -2.085505656511E+00 4.980962611642E+01 8.965350191581E+01 -1.705604307803E+02 -3.771465304841E+01 -1.703108041482E+02 -1.478257932514E+02 2.029469464671E+00 9.669917547553E-01 8.108868188375E+00 -1.969442217240E+01 -2.377386888018E+01 2.157297573645E+00 -7.161280817869E+01 1.450835296649E+02 5.944247745291E+02
 1.488448688985E+01 -5.093359316813E+00 1.231638799676E+00 1.435340599837E+01 -6.465374603161E+00 2.924068510167E+00 2.042695563997E+00 -4.375230341836E+00 8.498723064596E-01 4.404231635058E+00 -1.592698837130E+00 1.263175259030E+00 3.587655441795E+00 -4.097670041034E+00 1.153374997364E+00 -4.422983680346E+01 3.486413709355E+01 2.045105419205E-01 -8.769823570213E+00 -1.784274598448E+00 -2.046298583432E-01 -5.017677257518E+00 6.308415013798E+00 -1.346975088613E+00 8.928531383178E-01 2.997157460122E+00 6.458639524784E-01 -5.217570857446E+00 4.086395119997E+00 -7.139674973906E-01 -1.147332887358E+03 -4.807151887546E+02 -2.386146531937E+01 1.378108801806E+02 5.956720103952E+01 2.927814952421E+01 -1.124340426524E+03 4.041254279813E+02 -1.000254325169E+01 -4.286715537015E+02 -4.054093739067E+01 -2.030289684417E+00 -8.475286678750E+01 -1.223750063542E+01 -1.679851188303E+01 2.675397036697E+03
 -1.026788483347E+01 1.803108216365E+01 -9.409175201090E-01 -9.443991862320E+00 2.175635811086E+01 -2.440350433146E+00 -4.054286606214E-01 5.478777107157E+00 -1.113406378218E-02 1.351081015838E+00 -3.084807602754E-01 -5.048500076372E-01 1.901758986851E+00 8.865690459359E-01 -4.856353223054E-01 -1.572146021470E+01 4.006495767471E+01 1.287973247926E-01 3.351648884350E+00 -1.176561713787E+00 1.230737933290E+00 -4.328890592467E+00 -6.906540580210E+00 7.165549969309E-02 -4.488812418341E+00 -1.941916537141E+00 -5.008943385089E-02 -2.159177052482E-01 -2.314349875818E+00 9.827245016409E-01 -5.256495205391E+02 -6.411487676528E+02 -1.637067176238E+01 -2.198208456453E+01 -8.459957285551E+01 3.647535884404E+01 4.154144607512E+02 -7.060357170905E+02 1.596761951247E+00 -5.195249971836E+01 -1.406917982236E+03 -7.388819421023E+00 1.041199236872E+02 8.732560322255E+01 8.746555362170E+00 3.814651052434E+01 2.657148643819E+03
 -2.682514993914E-01 4.787956703182E-01 6.495163395383E+00 -1.317135797065E+00 2.087121008928E+00 -5.160199212877E+00 2.599719024469E-01 -2.542641740680E-01 -2.849026442544E+00 -9.213913389654E-02 5.434606619856E-01 2.561397866269E-01 -1.785531356443E-01 -2.101962910926E-01 -1.677337584692E+00 1.093194025070E+00 8.517444150926E-01 9.266875914404E+00 6.952918170919E-01 2.615696454466E-01 -1.995427836983E+00 -4.353197395917E-01 -7.795987817516E-01 -3.194956602714E+00 -1.458929464858E-01 1.631347402701E-01 -1.526623428301E+00 3.805675374518E-01 1.556132936101E-01 -1.252229601150E+00 -5.801564613165E+00 -2.587181130841E+01 -8.823191282943E+01 -8.747116643149E-01 2.173915441158E+00 -1.126674105382E+00 -6.677632354148E+00 2.519270344698E+00 -8.235891834220E+01 5.013161891469E+00 -5.519217218239E+00 -8.420587021464E+01 -1.243731805788E+01 1.937940407518E+01 1.045368495749E+00 1.736027533865E+01 1.899440173816E+01 2.037151189398E+02
 4.983504835424E+01 -3.111210226346E+01 3.373461672899E+00 3.185239653659E+01 -2.570994462293E+01 6.126247393496E+00 2.356830884333E+00 -1.307664609834E+01 3.887877316471E+00 1.127712482476E+01 -4.623582708182E+00 8.988003327880E-01 9.126599409022E+00 -1.154916142125E+01 4.393843363718E+00 -7.541678084723E+01 7.713143530357E+00 -4.255845014410E-01 -1.982867006642E+01 -2.211587767802E+00 2.839153568466E+00 -5.307558436532E+00 2.342760134114E+01 -2.798833286052E+00 4.937212558120E+00 9.526864530055E+00 -2.488288381068E-01 -1.368183981761E+01 7.039412117642E+00 8.925086708511E-01 1.566037440759E+02 -7.511093111126E+01 3.236773028611E+00 -1.070314360907E+03 -4.105804750461E+02 -3.132798558937E+01 1.179913713865E+02 -3.778098169494E+01 1.183062148412E+00 -1.179677966289E+03 3.346944835823E+02 1.758968503326E+01 5.558524157314E+01 9.756847972263E+01 -7.401184620880E+00 -9.183565426194E+01 6.019485226596E+01 -6.829748152439E+00 2.587190063582E+03
 1.018638281092E+01 -1.224800128168E+01 -1.256599134027E+00 1.089129272776E+01 -1.297582075393E+01 6.567589013801E-02 2.219885234591E+00 -6.150479222886E+00 2.636015457181E-01 2.511471213609E+00 -1.357263094571E+00 -7.667081890665E-01 1.840669139648E+00 -5.047046694950E+00 -1.073530564222E+00 -1.748374561996E+01 9.970332088062E+00 2.603287226024E-02 -3.761967217907E+00 -1.974861951013E+00 9.872997814563E-01 3.288590040583E+00 2.226043476765E+00 1.917565196823E+00 3.496998801943E+00 -2.324516502427E+00 -2.195444280238E+00 6.636978925726E-01 -3.445389418613E-01 1.251143778930E-01 1.088806824748E+02 -7.014072948796E+01 3.805296414281E-01 -4.031488425273E+02 -5.700236994883E+02 4.482301774962E+01 1.679533659164E+01 -2.107981214793E+01 1.998015219255E+00 4.786199489434E+02 -8.163119149428E+02 -6.683428743154E+00 -1.686249303040E+02 8.123646577751E+00 1.987473186856E+01 2.876616037814E+01 7.627285157763E+01 -5.634658058546E+00 -2.262365262475E+01 2.354339682698E+03
 -5.700153437153E+00 5.070502132387E+00 -6.522237897718E-01 -1.002984408104E+00 4.165395429194E+00 4.924039957925E+00 -3.818025800373E-01 2.151488827372E+00 -5.228273481840E+00 -3.079900465019E-01 1.585091140105E+00 7.803139178427E-01 -4.707695760160E-01 8.888908178326E-01 -4.744388439145E+00 7.151928710240E+00 -1.445258858665E+00 1.072963036259E+00 2.169943361344E+00 -1.255394330712E+00 -2.627996610504E+00 -1.794066584733E+00 -4.598992350490E+00 2.211545043446E+00 -1.792709044672E-01 -1.412119685584E+00 -1.301861921609E+00 1.732041570737E+00 -1.057062808912E+00 9.762105859272E-02 -2.367481630452E+01 1.159867419831E+01 -2.125728578672E+01 7.150016157099E+00 8.809673834509E+01 -9.498476985442E+01 -1.262882737048E+01 4.959004468477E+00 4.992664551184E+00 3.380496074996E+01 -1.461315357957E+01 -7.347989387255E+01 6.236765022478E+00 -1.261659968889E+01 1.025090754115E+01 8.127103284282E+00 -6.589468224576E-02 2.276554908627E+01 -1.134062880055E+02 -1.024859615588E+01 2.751691070491E+02
 8.901148106498E+00 -1.117111000621E+01 1.888106241242E-01 -1.229352198036E+03 4.459789689175E+02 -9.995416741850E+00 6.647837719888E-01 -5.641905048218E+00 5.581931772248E-01 1.456206423311E+00 -1.458029409217E+00 -1.819961427278E-01 1.076072748669E+00 -3.774952681023E+00 4.429855712265E-01 2.893160029583E+01 8.270540761367E+00 3.616827726811E-01 -2.879848654194E+00 -1.206647518202E+00 2.888518249837E-01 -1.683881333825E+01 4.157846927909E+01 -1.244013620771E+00 3.435518593621E+00 -9.426960106994E-01 -6.689533856531E-01 8.523488864421E-01 -4.580795014508E-01 2.879326201645E-02 6.326501064927E+01 -3.342153540365E+01 -3.979877309566E+00 4.129669445891E+01 6.302268868100E+01 -3.567993334765E+01 8.652390611068E+00 -1.075406727789E+01 1.979250512150E+00 -1.090911995318E+03 -4.086385287521E+02 1.235440941185E+01 -4.363146028191E+01 -2.274743003533E+01 9.421049359247E+00 1.150510869408E+01 5.438771529770E+01 -1.604959085505E+00 -7.314782661886E+01 -6.978414350120E+01 3.353696882961E+00 2.703814679515E+03
 1.767886622837E+00 -3.233441026382E+00 2.858362354340E-01 4.725322556352E+02 -7.656724755057E+02 1.722910272450E+01 2.354108936078E-01 -9.795268094213E-01 2.141004050056E-02 4.567126477399E-01 5.127258249422E-02 3.714562885563E-01 2.505341425341E-02 -8.433299796776E-01 8.477950113613E-02 6.298658623064E+01 2.082326524736E+00 -1.063244555667E-01 -9.286909694027E-02 -1.321648176346E-01 -4.287055254969E-01 -3.183223182068E+01 6.049531227432E+01 -6.919603198725E-01 7.642285909924E-01 -8.575656104328E-01 -1.214327755468E-01 5.514774945093E-01 -5.524153111895E-01 -6.087788164368E-01 1.325555425168E+01 -8.317013465085E+00 -3.025682970527E+00 5.647566116657E+00 1.533987256913E+01 -1.178613644484E+01 1.068684784111E+00 -2.599293023565E+00 -1.094689060810E+00 -3.669030874773E+02 -6.532124868282E+02 1.263654818994E+01 -1.601464628655E+01 -2.043470272475E+00 8.298964555560E-01 -6.315447557115E+01 1.599595957940E+01 1.996851874270E-01 2.123047202307E+01 4.828149812067E+01 9.556252977159E-01 -3.608588662554E+01 2.807696325454E+03
 -5.733571796683E-01 1.690358958486E+00 5.197444798565E+00 -1.214155366125E+01 1.675587086672E+01 -8.137355340775E+01 2.034867053128E-01 7.866242623281E-01 -2.424442953080E-01 1.496722318885E+00 1.772599396596E-01 6.859491133861E+00 3.907458356351E-01 2.720893617382E-01 1.068778242578E+00 1.388576631981E+00 -2.203386639101E+00 1.006880457273E+01 -8.023282638802E-01 -1.078074781156E+00 4.505778660321E-02 -1.532301601314E+00 1.007105713400E+00 1.210818071001E+01 -1.826625329983E-01 -2.254727269854E-01 6.738510637063E-01 -6.299705205658E-01 4.701956728194E-01 2.314314383002E+00 3.866665847923E+00 1.018265538671E+00 5.257994185315E+00 7.360615824867E+00 1.257824833001E+00 1.385860936427E+01 -1.555844532556E+00 -6.922306773547E-01 -8.395878916408E+00 1.750120372521E+01 5.874215981263E+00 -7.766698306058E+01 2.921876121745E+00 -3.162603214743E+00 -2.058694913720E+00 -2.414699816921E+00 -1.034940275792E+00 9.445554458593E+00 5.170984952459E+00 3.987377532148E+00 3.992403325210E+00 -4.099820994565E+00 -7.122355638495E+01 1.937060349613E+02