#BIOSYM hessian 1
@Type: Hessian Update
@Units
 distance: 	A
 energy: 	Kcal/Mol
#header
@natom 69

#label
C1      C2      C3      C4      C5      C6      C7      C8      C9      C10     C11     C12     C13     C14     C15     C16     C17     C18     C19     C20     C21     C22     C23     H24     C25     C26     C27     C28     C29     C30     C31     C32     C33     C34     C35     C36     C37     C38     C39     C40     C41     C42     C43     C44     C45     C46     C47     C48     C49     H50     H51     H52     H53     H54     H55     H56     H57     H58     H59     H60     H61     H62     H63     H64     H65     C66     H67     O68     O69

#element
C  C  C  C  C  C  C  C  C  C  C  C  C  C  C  C  C  C  C  C  C  C  C  H  C  C  C  C  C  C  C  C  C  C  C  C  C  C  C  C  C  C  C  C  C  C  C  C  C  H  H  H  H  H  H  H  H  H  H  H  H  H  H  H  H  C  H  O  O 

#matrix
207
 2.784076069176E+03
 -2.231644222594E+01 2.820362113093E+03
 0.000000000000E+00 0.000000000000E+00 0.000000000000E+00
 4.007767258074E+01 6.706932271082E+01 0.000000000000E+00 2.791450784395E+03
 -5.309020152791E-01 -9.642597588092E-01 0.000000000000E+00 -2.304928223402E+01 2.768388589724E+03
 0.000000000000E+00 0.000000000000E+00 0.000000000000E+00 0.000000000000E+00 0.000000000000E+00 0.000000000000E+00
 -1.970615540244E+01 3.527539234015E+01 0.000000000000E+00 3.240421903312E-02 -1.729709329463E-02 0.000000000000E+00 2.811870937907E+03
 -3.317497894988E+01 5.944700624018E+01 0.000000000000E+00 -1.451193080464E-02 1.699899139665E-02 0.000000000000E+00 -3.135274442589E+01 2.819911999413E+03
 0.000000000000E+00 0.000000000000E+00 0.000000000000E+00 0.000000000000E+00 0.000000000000E+00 0.000000000000E+00 0.000000000000E+00 0.000000000000E+00 0.000000000000E+00
 3.850962219413E+01 -6.868404601220E+01 0.000000000000E+00 -1.964418258385E+01 3.564429851833E+01 0.000000000000E+00 4.245948388926E+01 7.177562996335E+01 0.000000000000E+00 2.788371104632E+03
 -6.660403640770E-01 1.060658466452E+00 0.000000000000E+00 -3.255981101201E+01 5.917369645359E+01 0.000000000000E+00 -6.542827157528E-01 -1.112801447286E+00 0.000000000000E+00 -1.954569260267E+01 2.833925351167E+03
 0.000000000000E+00 0.000000000000E+00 0.000000000000E+00 0.000000000000E+00 0.000000000000E+00 0.000000000000E+00 0.000000000000E+00 0.000000000000E+00 0.000000000000E+00 0.000000000000E+00 0.000000000000E+00 0.000000000000E+00
 1.050871994201E-02 -4.373027950790E-03 0.000000000000E+00 -2.622533280734E-02 3.550423192228E-02 0.000000000000E+00 4.151154222431E+01 -7.363019742383E+01 0.000000000000E+00 -2.155180589612E+01 3.876311706144E+01 0.000000000000E+00 2.633470401818E+03
 1.778338921090E-02 7.498317800162E-03 0.000000000000E+00 -2.196741496145E-02 4.196570553996E-02 0.000000000000E+00 6.367206800245E-02 -1.356347815013E-01 0.000000000000E+00 -3.493976414141E+01 6.286157732726E+01 0.000000000000E+00 -2.209623359006E+02 2.902644137828E+03
 0.000000000000E+00 0.000000000000E+00 0.000000000000E+00 0.000000000000E+00 0.000000000000E+00 0.000000000000E+00 0.000000000000E+00 0.000000000000E+00 0.000000000000E+00 0.000000000000E+00 0.000000000000E+00 0.000000000000E+00 0.000000000000E+00 0.000000000000E+00 0.000000000000E+00
 -1.225124700623E+03 4.499928841866E+02 0.000000000000E+00 -4.655676011711E+02 -1.465071272805E+01 0.000000000000E+00 1.153525907189E-02 -1.404151281578E-03 0.000000000000E+00 1.740363147101E-02 -3.550187987746E-03 0.000000000000E+00 9.224936760447E-04 -1.524112507509E-02 0.000000000000E+00 2.823015103156E+03
 4.446400123418E+02 -7.470118352252E+02 0.000000000000E+00 -1.373579545562E+01 -1.433042090766E+03 0.000000000000E+00 1.894343363476E-02 -9.710280011771E-03 0.000000000000E+00 -4.296964582777E-02 6.071180312638E-02 0.000000000000E+00 -1.185360143287E-02 -2.820565246056E-02 0.000000000000E+00 -1.017703700673E+00 2.782621274365E+03
 0.000000000000E+00 0.000000000000E+00 0.000000000000E+00 0.000000000000E+00 0.000000000000E+00 0.000000000000E+00 0.000000000000E+00 0.000000000000E+00 0.000000000000E+00 0.000000000000E+00 0.000000000000E+00 0.000000000000E+00 0.000000000000E+00 0.000000000000E+00 0.000000000000E+00 0.000000000000E+00 0.000000000000E+00 0.000000000000E+00
 -1.198278276261E+03 -4.093543727277E+02 0.000000000000E+00 5.803103022322E-02 -7.403503493142E-02 0.000000000000E+00 -1.257173586532E+03 4.513255234215E+02 0.000000000000E+00 -4.861075911412E+02 -1.813482061031E+01 0.000000000000E+00 3.895343202235E-03 -1.933948758791E-02 0.000000000000E+00 -1.958500838726E+01 -3.259736823075E+01 0.000000000000E+00 2.820749861548E+03
 -4.090101438111E+02 -6.971480080722E+02 0.000000000000E+00 -2.644368678043E-02 -1.576009878077E-02 0.000000000000E+00 4.530565978242E+02 -7.537353114139E+02 0.000000000000E+00 -2.024690342116E+01 -1.513027177126E+03 0.000000000000E+00 -2.043812674742E-02 2.684819209881E-02 0.000000000000E+00 3.493117304566E+01 5.826112542982E+01 0.000000000000E+00 -2.639442275404E+01 2.845936670659E+03
 0.000000000000E+00 0.000000000000E+00 0.000000000000E+00 0.000000000000E+00 0.000000000000E+00 0.000000000000E+00 0.000000000000E+00 0.000000000000E+00 0.000000000000E+00 0.000000000000E+00 0.000000000000E+00 0.000000000000E+00 0.000000000000E+00 0.000000000000E+00 0.000000000000E+00 0.000000000000E+00 0.000000000000E+00 0.000000000000E+00 0.000000000000E+00 0.000000000000E+00 0.000000000000E+00
 6.270192457615E-02 -4.245519338518E-03 0.000000000000E+00 -1.226017077189E+03 -4.167359589503E+02 0.000000000000E+00 -2.104375136290E-02 9.449023544386E-03 0.000000000000E+00 -1.219818195388E+03 4.440903942312E+02 0.000000000000E+00 1.029856581281E-02 1.877364877529E-02 0.000000000000E+00 3.686481493384E+01 -5.962355332321E-01 0.000000000000E+00 4.198369995529E+01 -6.061272088054E-01 0.000000000000E+00 2.807706937669E+03
 7.115653702881E-02 -4.966450350512E-02 0.000000000000E+00 -4.191929190168E+02 -7.001286527930E+02 0.000000000000E+00 -2.614673088194E-02 -2.218647956547E-03 0.000000000000E+00 4.423055931905E+02 -7.421332883027E+02 0.000000000000E+00 -1.215668560702E-03 4.274524298716E-03 0.000000000000E+00 -6.698946973372E+01 9.750796468461E-01 0.000000000000E+00 6.993529581284E+01 -1.037387573536E+00 0.000000000000E+00 -1.551188423256E+00 2.808620570515E+03
 0.000000000000E+00 0.000000000000E+00 0.000000000000E+00 0.000000000000E+00 0.000000000000E+00 0.000000000000E+00 0.000000000000E+00 0.000000000000E+00 0.000000000000E+00 0.000000000000E+00 0.000000000000E+00 0.000000000000E+00 0.000000000000E+00 0.000000000000E+00 0.000000000000E+00 0.000000000000E+00 0.000000000000E+00 0.000000000000E+00 0.000000000000E+00 0.000000000000E+00 0.000000000000E+00 0.000000000000E+00 0.000000000000E+00 0.000000000000E+00
 8.394247789451E-03 -4.148695205525E-03 0.000000000000E+00 -3.889326850601E-04 2.708688208056E-03 0.000000000000E+00 -1.201081266034E+03 -4.043769164853E+02 0.000000000000E+00 2.107091931330E-02 -2.752041889435E-02 0.000000000000E+00 -5.218354627828E+02 1.033947949068E+00 0.000000000000E+00 -6.948282959381E-03 -2.049889699841E-03 0.000000000000E+00 -1.983395894828E+01 -3.348285031787E+01 0.000000000000E+00 -3.734923083045E-03 1.305270189838E-02 0.000000000000E+00 2.772838411629E+03
 -3.424528012818E-02 7.799537196346E-03 0.000000000000E+00 2.552164534660E-02 -4.329469225119E-02 0.000000000000E+00 -4.132774440139E+02 -6.988248073089E+02 0.000000000000E+00 -5.013435257865E-03 3.640826783133E-03 0.000000000000E+00 2.690475661652E+00 -1.636106750525E+03 0.000000000000E+00 7.819862959084E-03 2.436315472244E-02 0.000000000000E+00 3.520188117641E+01 5.947463248469E+01 0.000000000000E+00 -2.449761003251E-02 -5.277570081459E-03 0.000000000000E+00 -2.949962302217E+01 2.959041947095E+03
 0.000000000000E+00 0.000000000000E+00 0.000000000000E+00 0.000000000000E+00 0.000000000000E+00 0.000000000000E+00 0.000000000000E+00 0.000000000000E+00 0.000000000000E+00 0.000000000000E+00 0.000000000000E+00 0.000000000000E+00 0.000000000000E+00 0.000000000000E+00 0.000000000000E+00 0.000000000000E+00 0.000000000000E+00 0.000000000000E+00 0.000000000000E+00 0.000000000000E+00 0.000000000000E+00 0.000000000000E+00 0.000000000000E+00 0.000000000000E+00 0.000000000000E+00 0.000000000000E+00 0.000000000000E+00
 -3.503974697021E-02 2.851215252248E-03 0.000000000000E+00 5.620148513917E-02 -7.039502224565E-02 0.000000000000E+00 2.702400136554E-03 -9.350770755186E-03 0.000000000000E+00 -1.200442564464E+03 -4.137137015822E+02 0.000000000000E+00 -1.329220089235E+03 4.983647245541E+02 0.000000000000E+00 9.895400314552E-03 4.062791292792E-02 0.000000000000E+00 3.832865178236E+01 -6.109449606148E-01 0.000000000000E+00 -1.942084944124E+01 -3.235396658809E+01 0.000000000000E+00 4.992349781465E+01 8.403658828601E-02 0.000000000000E+00 2.880499518802E+03
 1.693626721336E-03 -1.316256886301E-02 0.000000000000E+00 6.143072349821E-03 -1.866669126281E-02 0.000000000000E+00 9.618469287314E-03 7.640741494370E-03 0.000000000000E+00 -4.052987149801E+02 -6.988497344070E+02 0.000000000000E+00 4.964111224163E+02 -8.283232483695E+02 0.000000000000E+00 1.278363209826E-02 1.005993739632E-02 0.000000000000E+00 -6.894623536907E+01 1.062827982304E+00 0.000000000000E+00 3.484975710797E+01 5.807313874022E+01 0.000000000000E+00 8.107487958033E+01 1.285447254928E-01 0.000000000000E+00 -9.718211393342E+01 2.847713757126E+03
 0.000000000000E+00 0.000000000000E+00 0.000000000000E+00 0.000000000000E+00 0.000000000000E+00 0.000000000000E+00 0.000000000000E+00 0.000000000000E+00 0.000000000000E+00 0.000000000000E+00 0.000000000000E+00 0.000000000000E+00 0.000000000000E+00 0.000000000000E+00 0.000000000000E+00 0.000000000000E+00 0.000000000000E+00 0.000000000000E+00 0.000000000000E+00 0.000000000000E+00 0.000000000000E+00 0.000000000000E+00 0.000000000000E+00 0.000000000000E+00 0.000000000000E+00 0.000000000000E+00 0.000000000000E+00 0.000000000000E+00 0.000000000000E+00 0.000000000000E+00
 -2.672944340886E-01 2.858485433655E-01 0.000000000000E+00 -4.877161861564E-01 1.378394019997E+00 0.000000000000E+00 2.131846275973E-01 -1.566675345306E-01 0.000000000000E+00 -3.600797064648E-01 -8.115577934302E-02 0.000000000000E+00 -1.998121121371E-01 -2.434706939292E-01 0.000000000000E+00 5.113393322740E-02 -7.601512070875E-01 0.000000000000E+00 2.154776801236E-01 1.207327951530E-02 0.000000000000E+00 7.342705532508E-02 -1.995760869562E-01 0.000000000000E+00 -3.639152195843E-02 2.551005671148E-01 0.000000000000E+00 4.406065517507E-01 2.149601905709E-01 0.000000000000E+00 2.798362503436E+03
 4.741367420560E-01 -4.712633270162E-01 0.000000000000E+00 7.399289190463E-01 -1.497714447561E+00 0.000000000000E+00 -2.299822594161E-01 9.735031569861E-02 0.000000000000E+00 4.494728042323E-01 2.152623998849E-01 0.000000000000E+00 1.160640124982E-01 3.613296276427E-01 0.000000000000E+00 2.774182651394E-01 1.109946620139E+00 0.000000000000E+00 -2.472919346307E-01 1.225984228746E-01 0.000000000000E+00 -1.083278273670E-01 -5.171274872039E-02 0.000000000000E+00 1.170186268869E-01 -2.941520935172E-01 0.000000000000E+00 -4.209067418116E-01 -4.583648505980E-01 0.000000000000E+00 1.765345772437E+01 2.795601321846E+03
 0.000000000000E+00 0.000000000000E+00 0.000000000000E+00 0.000000000000E+00 0.000000000000E+00 0.000000000000E+00 0.000000000000E+00 0.000000000000E+00 0.000000000000E+00 0.000000000000E+00 0.000000000000E+00 0.000000000000E+00 0.000000000000E+00 0.000000000000E+00 0.000000000000E+00 0.000000000000E+00 0.000000000000E+00 0.000000000000E+00 0.000000000000E+00 0.000000000000E+00 0.000000000000E+00 0.000000000000E+00 0.000000000000E+00 0.000000000000E+00 0.000000000000E+00 0.000000000000E+00 0.000000000000E+00 0.000000000000E+00 0.000000000000E+00 0.000000000000E+00 0.000000000000E+00 0.000000000000E+00 0.000000000000E+00
 -2.983068927117E-02 -5.918719164814E-02 0.000000000000E+00 -1.093574558636E-01 3.020334074868E-01 0.000000000000E+00 5.387361169434E-02 2.357324009475E-02 0.000000000000E+00 -4.584075361960E-02 6.401791022207E-02 0.000000000000E+00 -2.352551928009E-02 -7.235446970353E-02 0.000000000000E+00 -5.127262196394E-03 -7.759767133540E-02 0.000000000000E+00 3.679228290285E-03 -5.677461648059E-02 0.000000000000E+00 -1.098738021438E-01 9.363444103553E-02 0.000000000000E+00 -1.295614415999E-02 2.544434459939E-02 0.000000000000E+00 7.114388594464E-02 3.246878970694E-02 0.000000000000E+00 4.077786077899E+01 7.402819143142E+01 0.000000000000E+00 2.788897956752E+03
 -1.586841127671E-01 -3.629003490263E-02 0.000000000000E+00 -4.956570123259E-01 8.218629722038E-01 0.000000000000E+00 9.484212461515E-02 3.563786727212E-03 0.000000000000E+00 -1.649732408519E-01 6.301709372719E-02 0.000000000000E+00 -1.238168579999E-01 -1.183934267161E-01 0.000000000000E+00 8.765498965226E-02 -2.249991520434E-01 0.000000000000E+00 1.020022546476E-01 -3.278243363091E-02 0.000000000000E+00 -6.919538352951E-02 1.512714185138E-02 0.000000000000E+00 -2.146054067556E-02 9.048872624493E-02 0.000000000000E+00 2.462177917144E-01 7.638493335831E-03 0.000000000000E+00 -3.936122569890E+00 1.502180080578E+00 0.000000000000E+00 2.748811006210E+02 2.851347171427E+03
 0.000000000000E+00 0.000000000000E+00 0.000000000000E+00 0.000000000000E+00 0.000000000000E+00 0.000000000000E+00 0.000000000000E+00 0.000000000000E+00 0.000000000000E+00 0.000000000000E+00 0.000000000000E+00 0.000000000000E+00 0.000000000000E+00 0.000000000000E+00 0.000000000000E+00 0.000000000000E+00 0.000000000000E+00 0.000000000000E+00 0.000000000000E+00 0.000000000000E+00 0.000000000000E+00 0.000000000000E+00 0.000000000000E+00 0.000000000000E+00 0.000000000000E+00 0.000000000000E+00 0.000000000000E+00 0.000000000000E+00 0.000000000000E+00 0.000000000000E+00 0.000000000000E+00 0.000000000000E+00 0.000000000000E+00 0.000000000000E+00 0.000000000000E+00 0.000000000000E+00
 -2.025997000190E+01 -3.356021176852E+01 0.000000000000E+00 3.837146224848E+01 -8.432674754047E-01 0.000000000000E+00 -3.813978602984E-02 5.394650774139E-02 0.000000000000E+00 9.607524365568E-02 1.212517432201E-01 0.000000000000E+00 3.157491226727E-03 3.927416020854E-02 0.000000000000E+00 -1.252149223131E+03 -4.306224415273E+02 0.000000000000E+00 -1.845740643077E-02 -8.928014002328E-02 0.000000000000E+00 -1.479158594368E-01 2.025656076873E-02 0.000000000000E+00 3.747454856690E-02 -3.443449735845E-02 0.000000000000E+00 -4.535635467680E-02 -7.502714504703E-02 0.000000000000E+00 -1.869811424218E+01 3.410452104124E+01 0.000000000000E+00 2.048993667546E-01 4.253557048923E-01 0.000000000000E+00 2.778619589298E+03
 3.661517933437E+01 6.059080592385E+01 0.000000000000E+00 -6.816572972294E+01 1.017203898958E+00 0.000000000000E+00 6.025762127102E-02 -1.952291863586E-02 0.000000000000E+00 -1.347227482593E-02 -6.675871633073E-03 0.000000000000E+00 -1.269013869505E-02 -3.623510562290E-02 0.000000000000E+00 -4.353067801740E+02 -7.191861017445E+02 0.000000000000E+00 -2.757837604316E-02 4.534687513864E-02 0.000000000000E+00 1.784355277607E-02 2.330223140509E-03 0.000000000000E+00 -8.385411501389E-03 3.446224861829E-02 0.000000000000E+00 2.722764021594E-02 2.979856359808E-02 0.000000000000E+00 -3.144539704244E+01 5.701145040238E+01 0.000000000000E+00 3.544041355855E-02 -9.475377044563E-03 0.000000000000E+00 2.204430087712E+01 2.806542637688E+03
 0.000000000000E+00 0.000000000000E+00 0.000000000000E+00 0.000000000000E+00 0.000000000000E+00 0.000000000000E+00 0.000000000000E+00 0.000000000000E+00 0.000000000000E+00 0.000000000000E+00 0.000000000000E+00 0.000000000000E+00 0.000000000000E+00 0.000000000000E+00 0.000000000000E+00 0.000000000000E+00 0.000000000000E+00 0.000000000000E+00 0.000000000000E+00 0.000000000000E+00 0.000000000000E+00 0.000000000000E+00 0.000000000000E+00 0.000000000000E+00 0.000000000000E+00 0.000000000000E+00 0.000000000000E+00 0.000000000000E+00 0.000000000000E+00 0.000000000000E+00 0.000000000000E+00 0.000000000000E+00 0.000000000000E+00 0.000000000000E+00 0.000000000000E+00 0.000000000000E+00 0.000000000000E+00 0.000000000000E+00 0.000000000000E+00
 -7.936277341962E-02 -1.743369545771E-02 0.000000000000E+00 -1.920573670069E+01 -3.049060669664E+01 0.000000000000E+00 1.062013168531E-01 -3.720076609283E-02 0.000000000000E+00 -1.339041482983E-01 -9.584053061446E-03 0.000000000000E+00 -8.177326437261E-02 -1.177900818284E-01 0.000000000000E+00 -1.222491155108E-03 -2.293873996966E-01 0.000000000000E+00 4.743875718600E-02 -6.119764967396E-03 0.000000000000E+00 -1.423625262662E-02 4.455661106734E-02 0.000000000000E+00 -2.070764151045E-02 9.664878731375E-02 0.000000000000E+00 1.913414522848E-01 8.019527862493E-02 0.000000000000E+00 3.687541460660E+01 -6.681376318731E+01 0.000000000000E+00 -2.334201847192E+01 3.943389557431E+01 0.000000000000E+00 4.055406450224E+01 6.674628034322E+01 0.000000000000E+00 2.765805321602E+03
 1.123593967741E-02 1.488664292622E-01 0.000000000000E+00 3.419364028293E+01 5.546132095769E+01 0.000000000000E+00 -2.278725748622E-02 4.262695301479E-02 0.000000000000E+00 8.709123527743E-02 -2.895606219687E-02 0.000000000000E+00 2.919481096988E-02 9.030504792945E-02 0.000000000000E+00 -7.912461110866E-02 -1.330995224289E-01 0.000000000000E+00 -3.545824054368E-02 -3.140047377662E-02 0.000000000000E+00 -2.344296538671E-02 -7.302031962707E-02 0.000000000000E+00 -1.391085178008E-02 -8.102596916651E-02 0.000000000000E+00 -6.851036665846E-02 -6.037824259027E-02 0.000000000000E+00 1.594127235218E-01 -8.365852444187E-02 0.000000000000E+00 -4.232578749849E+01 7.391109749055E+01 0.000000000000E+00 -6.472779963172E-01 -5.686638823649E-01 0.000000000000E+00 -3.954980734209E+01 2.761355242463E+03
 0.000000000000E+00 0.000000000000E+00 0.000000000000E+00 0.000000000000E+00 0.000000000000E+00 0.000000000000E+00 0.000000000000E+00 0.000000000000E+00 0.000000000000E+00 0.000000000000E+00 0.000000000000E+00 0.000000000000E+00 0.000000000000E+00 0.000000000000E+00 0.000000000000E+00 0.000000000000E+00 0.000000000000E+00 0.000000000000E+00 0.000000000000E+00 0.000000000000E+00 0.000000000000E+00 0.000000000000E+00 0.000000000000E+00 0.000000000000E+00 0.000000000000E+00 0.000000000000E+00 0.000000000000E+00 0.000000000000E+00 0.000000000000E+00 0.000000000000E+00 0.000000000000E+00 0.000000000000E+00 0.000000000000E+00 0.000000000000E+00 0.000000000000E+00 0.000000000000E+00 0.000000000000E+00 0.000000000000E+00 0.000000000000E+00 0.000000000000E+00 0.000000000000E+00 0.000000000000E+00
 5.455194084048E-01 -4.039112436467E-01 0.000000000000E+00 1.419057299197E+00 -2.836657143844E+00 0.000000000000E+00 -4.859550461346E-01 1.097523549091E-01 0.000000000000E+00 7.086064253254E-01 1.429726316954E-01 0.000000000000E+00 2.865966489870E-01 5.737666108359E-01 0.000000000000E+00 1.687724631856E-01 1.325987579333E+00 0.000000000000E+00 -3.160121928468E-01 1.519609342106E-01 0.000000000000E+00 8.662888079150E-02 -2.184553970131E-02 0.000000000000E+00 1.797448162135E-01 -4.201711333769E-01 0.000000000000E+00 -7.967705189844E-01 -5.427830208674E-01 0.000000000000E+00 -1.209982852432E+03 4.209143810813E+02 0.000000000000E+00 -5.035566641057E+02 -1.340685834383E+01 0.000000000000E+00 -1.878108984504E+00 4.544594698166E-01 0.000000000000E+00 5.445113204320E+00 -6.757938219361E-01 0.000000000000E+00 2.814491583211E+03
 5.439647957220E-01 -4.563379170624E-01 0.000000000000E+00 1.388964705621E+00 -2.295198809320E+00 0.000000000000E+00 -3.067594737427E-01 9.583848458092E-02 0.000000000000E+00 5.594290231195E-01 1.813478190725E-01 0.000000000000E+00 3.057550234362E-01 3.242148030558E-01 0.000000000000E+00 1.157698749368E-02 1.174606989005E+00 0.000000000000E+00 -3.633985393368E-01 4.382027455871E-02 0.000000000000E+00 -1.379684393340E-01 2.012519103317E-01 0.000000000000E+00 1.266218104446E-01 -3.172232793417E-01 0.000000000000E+00 -6.915310702575E-01 -2.504080712375E-01 0.000000000000E+00 4.505319549789E+02 -7.573010812934E+02 0.000000000000E+00 -2.598336992625E+01 -1.533812099875E+03 0.000000000000E+00 -1.058953589374E+00 3.548023077507E-01 0.000000000000E+00 5.632563530098E+00 -2.316462729396E+00 0.000000000000E+00 -7.652879067089E+00 2.880265432115E+03
 0.000000000000E+00 0.000000000000E+00 0.000000000000E+00 0.000000000000E+00 0.000000000000E+00 0.000000000000E+00 0.000000000000E+00 0.000000000000E+00 0.000000000000E+00 0.000000000000E+00 0.000000000000E+00 0.000000000000E+00 0.000000000000E+00 0.000000000000E+00 0.000000000000E+00 0.000000000000E+00 0.000000000000E+00 0.000000000000E+00 0.000000000000E+00 0.000000000000E+00 0.000000000000E+00 0.000000000000E+00 0.000000000000E+00 0.000000000000E+00 0.000000000000E+00 0.000000000000E+00 0.000000000000E+00 0.000000000000E+00 0.000000000000E+00 0.000000000000E+00 0.000000000000E+00 0.000000000000E+00 0.000000000000E+00 0.000000000000E+00 0.000000000000E+00 0.000000000000E+00 0.000000000000E+00 0.000000000000E+00 0.000000000000E+00 0.000000000000E+00 0.000000000000E+00 0.000000000000E+00 0.000000000000E+00 0.000000000000E+00 0.000000000000E+00
 3.788786516013E-02 -7.435527372762E-02 0.000000000000E+00 -2.114775138126E-02 -9.980839705545E-02 0.000000000000E+00 -3.855793208368E-02 -5.223658140349E-03 0.000000000000E+00 8.045522092901E-03 1.817789204945E-02 0.000000000000E+00 1.833903957778E-02 7.131432255660E-03 0.000000000000E+00 -1.962124414882E+01 3.539565376942E+01 0.000000000000E+00 4.035679880605E-03 2.710437235233E-02 0.000000000000E+00 3.664091168871E-02 6.081993546011E-03 0.000000000000E+00 1.615405540976E-02 8.316092097404E-04 0.000000000000E+00 -4.420052948427E-02 -1.050326987901E-02 0.000000000000E+00 -1.227100623764E+03 -4.224224107019E+02 0.000000000000E+00 9.693670127381E-02 7.723244378464E-01 0.000000000000E+00 -1.168449162738E+03 4.261394663811E+02 0.000000000000E+00 -4.710934294985E+02 -1.581935342435E+01 0.000000000000E+00 -2.092943527755E+01 -3.499661192209E+01 0.000000000000E+00 2.751218143952E+03
 -6.457333419942E-02 -4.517687930751E-02 0.000000000000E+00 -3.317764083645E-01 4.570290999675E-01 0.000000000000E+00 6.266685086544E-02 -5.235690977898E-02 0.000000000000E+00 -1.513455281084E-01 -2.600293101990E-02 0.000000000000E+00 -4.194526007918E-02 -1.238434322571E-01 0.000000000000E+00 -3.246346742134E+01 5.811244524912E+01 0.000000000000E+00 7.327936047453E-02 1.975315109942E-02 0.000000000000E+00 7.233737862796E-02 4.698460712535E-02 0.000000000000E+00 -1.388060415120E-02 1.189227535807E-01 0.000000000000E+00 1.336716950588E-01 1.210225083463E-01 0.000000000000E+00 -4.282348035623E+02 -7.052502367195E+02 0.000000000000E+00 -2.154794142902E-01 -4.848222985019E-01 0.000000000000E+00 4.276074882276E+02 -7.218713728592E+02 0.000000000000E+00 -7.311074707263E+00 -1.497320747316E+03 0.000000000000E+00 4.001089572983E+01 6.236357485495E+01 0.000000000000E+00 5.594339535876E+00 2.809482864897E+03
 0.000000000000E+00 0.000000000000E+00 0.000000000000E+00 0.000000000000E+00 0.000000000000E+00 0.000000000000E+00 0.000000000000E+00 0.000000000000E+00 0.000000000000E+00 0.000000000000E+00 0.000000000000E+00 0.000000000000E+00 0.000000000000E+00 0.000000000000E+00 0.000000000000E+00 0.000000000000E+00 0.000000000000E+00 0.000000000000E+00 0.000000000000E+00 0.000000000000E+00 0.000000000000E+00 0.000000000000E+00 0.000000000000E+00 0.000000000000E+00 0.000000000000E+00 0.000000000000E+00 0.000000000000E+00 0.000000000000E+00 0.000000000000E+00 0.000000000000E+00 0.000000000000E+00 0.000000000000E+00 0.000000000000E+00 0.000000000000E+00 0.000000000000E+00 0.000000000000E+00 0.000000000000E+00 0.000000000000E+00 0.000000000000E+00 0.000000000000E+00 0.000000000000E+00 0.000000000000E+00 0.000000000000E+00 0.000000000000E+00 0.000000000000E+00 0.000000000000E+00 0.000000000000E+00 0.000000000000E+00
 7.551262636928E-02 7.931821990520E-02 0.000000000000E+00 3.316828563785E-01 -5.133904407351E-01 0.000000000000E+00 -7.027030918025E-02 3.720542148128E-03 0.000000000000E+00 1.167831250326E-01 -5.720906739765E-02 0.000000000000E+00 8.116703490757E-02 9.538387834275E-02 0.000000000000E+00 -4.929714667164E-02 7.257430447709E-02 0.000000000000E+00 -5.577733993680E-02 9.146130612420E-03 0.000000000000E+00 4.395658957991E-02 -4.210678500517E-02 0.000000000000E+00 9.744455278364E-03 -6.987779830034E-02 0.000000000000E+00 -1.727635131574E-01 -1.460912184041E-02 0.000000000000E+00 2.920026347969E+00 -2.740707083384E+00 0.000000000000E+00 -1.513110821209E+03 -5.218076037053E+02 0.000000000000E+00 -2.904621808811E-01 -2.496430234405E-02 0.000000000000E+00 -1.268180503324E+03 4.410322110251E+02 0.000000000000E+00 4.278067599894E+01 -6.559646582493E+00 0.000000000000E+00 3.943617627008E+01 2.349528917586E-01 0.000000000000E+00 3.072003780294E+03
 -5.177585413485E-02 4.203095464683E-02 0.000000000000E+00 -1.832615819148E-01 2.546430556766E-01 0.000000000000E+00 4.167092439529E-02 -4.546169501720E-02 0.000000000000E+00 -9.457492636335E-02 -5.131167949565E-02 0.000000000000E+00 -3.736272809802E-02 -5.828577300636E-02 0.000000000000E+00 9.242259887366E-03 -9.132426175080E-02 0.000000000000E+00 5.563077731228E-02 2.440254075069E-02 0.000000000000E+00 6.366790669902E-02 -3.727271312073E-02 0.000000000000E+00 -1.160481993670E-02 6.541248371006E-02 0.000000000000E+00 8.602810522943E-02 6.815389539170E-02 0.000000000000E+00 -7.723954308962E-01 9.703214692004E-01 0.000000000000E+00 -5.328218865810E+02 -8.606358644897E+02 0.000000000000E+00 1.902259235438E-01 -8.922473772404E-02 0.000000000000E+00 4.252360457076E+02 -7.332842678112E+02 0.000000000000E+00 -8.368805144524E+01 4.765017698552E+00 0.000000000000E+00 7.173275247372E+01 -1.077408993145E+00 0.000000000000E+00 8.614510270627E+01 2.541132778061E+03
 0.000000000000E+00 0.000000000000E+00 0.000000000000E+00 0.000000000000E+00 0.000000000000E+00 0.000000000000E+00 0.000000000000E+00 0.000000000000E+00 0.000000000000E+00 0.000000000000E+00 0.000000000000E+00 0.000000000000E+00 0.000000000000E+00 0.000000000000E+00 0.000000000000E+00 0.000000000000E+00 0.000000000000E+00 0.000000000000E+00 0.000000000000E+00 0.000000000000E+00 0.000000000000E+00 0.000000000000E+00 0.000000000000E+00 0.000000000000E+00 0.000000000000E+00 0.000000000000E+00 0.000000000000E+00 0.000000000000E+00 0.000000000000E+00 0.000000000000E+00 0.000000000000E+00 0.000000000000E+00 0.000000000000E+00 0.000000000000E+00 0.000000000000E+00 0.000000000000E+00 0.000000000000E+00 0.000000000000E+00 0.000000000000E+00 0.000000000000E+00 0.000000000000E+00 0.000000000000E+00 0.000000000000E+00 0.000000000000E+00 0.000000000000E+00 0.000000000000E+00 0.000000000000E+00 0.000000000000E+00 0.000000000000E+00 0.000000000000E+00 0.000000000000E+00
 6.500744025263E-02 -1.633813637977E-02 0.000000000000E+00 -1.220785020946E+03 4.492540834378E+02 0.000000000000E+00 -5.616376914881E-02 1.861316019469E-02 0.000000000000E+00 8.333821226187E-02 -3.684019272965E-03 0.000000000000E+00 3.973734375878E-02 4.656880801391E-02 0.000000000000E+00 4.082667549203E+01 -4.072502801051E-01 0.000000000000E+00 -2.840896020717E-02 7.210830187599E-04 0.000000000000E+00 -1.994709371561E+01 3.624419082107E+01 0.000000000000E+00 1.245467949508E-02 -3.536536047023E-02 0.000000000000E+00 -1.025372031315E-01 -2.187064747983E-02 0.000000000000E+00 7.924625399446E-01 -1.515757331028E+00 0.000000000000E+00 2.490851699962E-01 9.509843276307E-01 0.000000000000E+00 -7.360883205671E-02 -5.806584297642E-02 0.000000000000E+00 -1.142632986368E+03 -3.870234915658E+02 0.000000000000E+00 -2.697451763395E+00 -2.728866787321E+00 0.000000000000E+00 3.621619786129E+01 4.764907299197E-02 0.000000000000E+00 -1.845315848005E+01 -3.172537408490E+01 0.000000000000E+00 2.730269482190E+03
 -9.616483232731E-03 2.079476484995E-02 0.000000000000E+00 4.590034081564E+02 -7.483501499966E+02 0.000000000000E+00 -1.991700544512E-02 -1.284185738655E-02 0.000000000000E+00 7.564021725185E-04 -9.695207761713E-03 0.000000000000E+00 1.447215847633E-02 9.011129134176E-03 0.000000000000E+00 6.678301660027E+01 -9.304745745750E-01 0.000000000000E+00 1.009942612604E-02 1.443996050164E-02 0.000000000000E+00 -3.269328269389E+01 5.928765272706E+01 0.000000000000E+00 2.435550693443E-03 2.801559249088E-03 0.000000000000E+00 -2.245795989270E-02 8.730098814505E-03 0.000000000000E+00 1.775156585640E-01 -3.335885595309E-01 0.000000000000E+00 3.490566159669E-03 1.997667065318E-01 0.000000000000E+00 5.985292166961E-02 6.029550438277E-03 0.000000000000E+00 -3.854489186250E+02 -6.639462578193E+02 0.000000000000E+00 -3.395290047724E-01 -7.230352665084E-01 0.000000000000E+00 -6.535247643670E+01 5.411093439663E-01 0.000000000000E+00 3.198203011294E+01 5.739634936266E+01 0.000000000000E+00 -8.100926570611E+00 2.821417766712E+03
 0.000000000000E+00 0.000000000000E+00 0.000000000000E+00 0.000000000000E+00 0.000000000000E+00 0.000000000000E+00 0.000000000000E+00 0.000000000000E+00 0.000000000000E+00 0.000000000000E+00 0.000000000000E+00 0.000000000000E+00 0.000000000000E+00 0.000000000000E+00 0.000000000000E+00 0.000000000000E+00 0.000000000000E+00 0.000000000000E+00 0.000000000000E+00 0.000000000000E+00 0.000000000000E+00 0.000000000000E+00 0.000000000000E+00 0.000000000000E+00 0.000000000000E+00 0.000000000000E+00 0.000000000000E+00 0.000000000000E+00 0.000000000000E+00 0.000000000000E+00 0.000000000000E+00 0.000000000000E+00 0.000000000000E+00 0.000000000000E+00 0.000000000000E+00 0.000000000000E+00 0.000000000000E+00 0.000000000000E+00 0.000000000000E+00 0.000000000000E+00 0.000000000000E+00 0.000000000000E+00 0.000000000000E+00 0.000000000000E+00 0.000000000000E+00 0.000000000000E+00 0.000000000000E+00 0.000000000000E+00 0.000000000000E+00 0.000000000000E+00 0.000000000000E+00 0.000000000000E+00 0.000000000000E+00 0.000000000000E+00