#BIOSYM hessian 1
@Type: Hessian Update
@Units
 distance: 	A
 energy: 	Kcal/Mol
#header
@natom 67

#label
C1      C2      C3      C4      C5      C6      C7      C8      C9      C10     C11     C12     C13     C14     C15     C16     C17     C18     C19     C20     C21     C22     C23     H24     C25     C26     C27     C28     C29     C30     C31     C32     C33     C34     C35     C36     C37     C38     C39     C40     C41     C42     C43     C44     C45     C46     C47     C48     C49     H50     H51     H52     H53     H54     H55     H56     H57     H58     H59     H60     H61     H62     H63     H64     H65     O66     H67

#element
C  C  C  C  C  C  C  C  C  C  C  C  C  C  C  C  C  C  C  C  C  C  C  H  C  C  C  C  C  C  C  C  C  C  C  C  C  C  C  C  C  C  C  C  C  C  C  C  C  H  H  H  H  H  H  H  H  H  H  H  H  H  H  H  H  O  H 

#matrix
201
 2.783429558213E+03
 -2.367233483138E+01 2.819880601510E+03
 0.000000000000E+00 0.000000000000E+00 0.000000000000E+00
 3.968199490569E+01 6.694026189315E+01 0.000000000000E+00 2.791766418202E+03
 -9.834897037126E-01 -8.942133207923E-01 0.000000000000E+00 -2.387908984760E+01 2.765472794554E+03
 0.000000000000E+00 0.000000000000E+00 0.000000000000E+00 0.000000000000E+00 0.000000000000E+00 0.000000000000E+00
 -1.983278040303E+01 3.494632999408E+01 0.000000000000E+00 -3.023402039738E-01 -4.925023022266E-01 0.000000000000E+00 2.811829589573E+03
 -3.353245854931E+01 5.940912502194E+01 0.000000000000E+00 -8.463423846679E-02 -1.081159820206E-01 0.000000000000E+00 -3.202138218344E+01 2.819772395092E+03
 0.000000000000E+00 0.000000000000E+00 0.000000000000E+00 0.000000000000E+00 0.000000000000E+00 0.000000000000E+00 0.000000000000E+00 0.000000000000E+00 0.000000000000E+00
 3.850593031423E+01 -6.867746388924E+01 0.000000000000E+00 -1.993815134363E+01 3.457542522438E+01 0.000000000000E+00 4.206398524397E+01 7.183637695970E+01 0.000000000000E+00 2.787991125361E+03
 -5.503144827830E-01 8.643489222334E-01 0.000000000000E+00 -3.280020102345E+01 5.900354919076E+01 0.000000000000E+00 -5.807118465067E-01 -8.973279637217E-01 0.000000000000E+00 -1.970986534950E+01 2.833446146542E+03
 0.000000000000E+00 0.000000000000E+00 0.000000000000E+00 0.000000000000E+00 0.000000000000E+00 0.000000000000E+00 0.000000000000E+00 0.000000000000E+00 0.000000000000E+00 0.000000000000E+00 0.000000000000E+00 0.000000000000E+00
 2.308547141731E-02 -7.360540363524E-03 0.000000000000E+00 4.594750407555E-02 7.278795291408E-02 0.000000000000E+00 4.168405923256E+01 -7.351725149722E+01 0.000000000000E+00 -2.152352762707E+01 3.853288802383E+01 0.000000000000E+00 2.634445788378E+03
 -7.757725283945E-02 -1.874710983347E-02 0.000000000000E+00 -2.015980451033E-01 -3.559502517942E-01 0.000000000000E+00 9.929945373261E-02 -3.335984270626E-01 0.000000000000E+00 -3.529992809410E+01 6.281268825279E+01 0.000000000000E+00 -2.220156949703E+02 2.901651268294E+03
 0.000000000000E+00 0.000000000000E+00 0.000000000000E+00 0.000000000000E+00 0.000000000000E+00 0.000000000000E+00 0.000000000000E+00 0.000000000000E+00 0.000000000000E+00 0.000000000000E+00 0.000000000000E+00 0.000000000000E+00 0.000000000000E+00 0.000000000000E+00 0.000000000000E+00
 -1.227013997853E+03 4.489938529639E+02 0.000000000000E+00 -4.641837380849E+02 -1.048661103197E+01 0.000000000000E+00 3.511466172952E-01 9.755722704618E-02 0.000000000000E+00 6.029559395468E-01 1.491307585587E-01 0.000000000000E+00 -4.348024142291E-02 2.653276676955E-01 0.000000000000E+00 2.821296643806E+03
 4.437527493151E+02 -7.442702457377E+02 0.000000000000E+00 -1.068022401669E+01 -1.432586890862E+03 0.000000000000E+00 1.302138902959E-01 8.866693622534E-02 0.000000000000E+00 2.345696482342E-01 4.578171248413E-02 0.000000000000E+00 -1.226790771535E-02 9.803587593625E-02 0.000000000000E+00 -1.397968656387E+00 2.781915349109E+03
 0.000000000000E+00 0.000000000000E+00 0.000000000000E+00 0.000000000000E+00 0.000000000000E+00 0.000000000000E+00 0.000000000000E+00 0.000000000000E+00 0.000000000000E+00 0.000000000000E+00 0.000000000000E+00 0.000000000000E+00 0.000000000000E+00 0.000000000000E+00 0.000000000000E+00 0.000000000000E+00 0.000000000000E+00 0.000000000000E+00
 -1.195711224515E+03 -4.108370071653E+02 0.000000000000E+00 2.465536458350E-01 4.457488842221E-01 0.000000000000E+00 -1.259605368664E+03 4.499677021218E+02 0.000000000000E+00 -4.855426995363E+02 -1.521166304636E+01 0.000000000000E+00 -1.529251847101E-02 7.823315530892E-02 0.000000000000E+00 -1.993063246573E+01 -3.296696205126E+01 0.000000000000E+00 2.820442134842E+03
 -4.105886455370E+02 -6.992050558882E+02 0.000000000000E+00 -2.423939875492E-01 -4.056109626437E-01 0.000000000000E+00 4.516221590199E+02 -7.510990970418E+02 0.000000000000E+00 -1.747194201496E+01 -1.513142204514E+03 0.000000000000E+00 1.536408347764E-02 -6.316594615727E-02 0.000000000000E+00 3.501141839430E+01 5.831574757633E+01 0.000000000000E+00 -2.638160863758E+01 2.845431078477E+03
 0.000000000000E+00 0.000000000000E+00 0.000000000000E+00 0.000000000000E+00 0.000000000000E+00 0.000000000000E+00 0.000000000000E+00 0.000000000000E+00 0.000000000000E+00 0.000000000000E+00 0.000000000000E+00 0.000000000000E+00 0.000000000000E+00 0.000000000000E+00 0.000000000000E+00 0.000000000000E+00 0.000000000000E+00 0.000000000000E+00 0.000000000000E+00 0.000000000000E+00 0.000000000000E+00
 2.866054047837E-01 1.412150755617E-01 0.000000000000E+00 -1.223299273148E+03 -4.168637600521E+02 0.000000000000E+00 2.516956423944E-01 9.058745248757E-02 0.000000000000E+00 -1.221884617305E+03 4.428619852158E+02 0.000000000000E+00 -2.668475731553E-02 1.886040648836E-01 0.000000000000E+00 3.617449428050E+01 -8.529623966934E-01 0.000000000000E+00 4.151077404604E+01 -3.374432133188E-01 0.000000000000E+00 2.807323077319E+03
 1.939865755671E-01 7.263723069590E-02 0.000000000000E+00 -4.199324760605E+02 -7.016630532635E+02 0.000000000000E+00 2.049461778824E-01 6.584588647101E-02 0.000000000000E+00 4.413366526010E+02 -7.393932898375E+02 0.000000000000E+00 -2.627656806532E-02 1.519236222853E-01 0.000000000000E+00 -6.757300587089E+01 4.970390433639E-01 0.000000000000E+00 6.983525773854E+01 -7.334564924186E-01 0.000000000000E+00 -1.704445161339E+00 2.807953513516E+03
 0.000000000000E+00 0.000000000000E+00 0.000000000000E+00 0.000000000000E+00 0.000000000000E+00 0.000000000000E+00 0.000000000000E+00 0.000000000000E+00 0.000000000000E+00 0.000000000000E+00 0.000000000000E+00 0.000000000000E+00 0.000000000000E+00 0.000000000000E+00 0.000000000000E+00 0.000000000000E+00 0.000000000000E+00 0.000000000000E+00 0.000000000000E+00 0.000000000000E+00 0.000000000000E+00 0.000000000000E+00 0.000000000000E+00 0.000000000000E+00
 1.777326567860E-01 6.327094955429E-02 0.000000000000E+00 4.269438524418E-01 7.617390707254E-01 0.000000000000E+00 -1.198502265350E+03 -4.057613211093E+02 0.000000000000E+00 2.818497349715E-01 2.965712266393E-02 0.000000000000E+00 -5.219302425731E+02 4.350789627785E+00 0.000000000000E+00 -5.793141020809E-01 -2.219828514224E-01 0.000000000000E+00 -1.998794632299E+01 -3.358616797295E+01 0.000000000000E+00 -4.014419006194E-01 -3.113861847343E-01 0.000000000000E+00 2.772907474571E+03
 4.370477115073E-02 2.823919737541E-02 0.000000000000E+00 1.542358830997E-01 2.097565621519E-01 0.000000000000E+00 -4.146322463639E+02 -7.012674073357E+02 0.000000000000E+00 6.317423620496E-02 9.066116730524E-03 0.000000000000E+00 5.824590747886E+00 -1.636086421867E+03 0.000000000000E+00 -1.572634719429E-01 -8.006328581477E-02 0.000000000000E+00 3.493656432674E+01 5.950734871074E+01 0.000000000000E+00 -1.367024160409E-01 -1.012423768375E-01 0.000000000000E+00 -3.005185370213E+01 2.958837513325E+03
 0.000000000000E+00 0.000000000000E+00 0.000000000000E+00 0.000000000000E+00 0.000000000000E+00 0.000000000000E+00 0.000000000000E+00 0.000000000000E+00 0.000000000000E+00 0.000000000000E+00 0.000000000000E+00 0.000000000000E+00 0.000000000000E+00 0.000000000000E+00 0.000000000000E+00 0.000000000000E+00 0.000000000000E+00 0.000000000000E+00 0.000000000000E+00 0.000000000000E+00 0.000000000000E+00 0.000000000000E+00 0.000000000000E+00 0.000000000000E+00 0.000000000000E+00 0.000000000000E+00 0.000000000000E+00
 -9.507842917854E-04 1.336315947927E-02 0.000000000000E+00 4.034981657894E-02 6.728542140921E-02 0.000000000000E+00 6.788948799601E-02 -1.661988398201E-03 0.000000000000E+00 -1.198146072358E+03 -4.151723288501E+02 0.000000000000E+00 -1.331592890051E+03 4.971735663953E+02 0.000000000000E+00 -6.521553339336E-02 -2.453328984951E-02 0.000000000000E+00 3.850402957007E+01 -5.026336751879E-01 0.000000000000E+00 -1.945104254240E+01 -3.253515115220E+01 0.000000000000E+00 4.968157322435E+01 2.499047823941E-01 0.000000000000E+00 2.880542590104E+03
 1.097787464042E-01 -2.303875065335E-03 0.000000000000E+00 2.612444276845E-01 4.638287916704E-01 0.000000000000E+00 8.708069448148E-02 -3.384242333146E-03 0.000000000000E+00 -4.065752076268E+02 -7.009520330743E+02 0.000000000000E+00 4.952269415536E+02 -8.258685791351E+02 0.000000000000E+00 -3.315187701497E-01 -1.022330567404E-01 0.000000000000E+00 -6.893448586774E+01 9.751255908755E-01 0.000000000000E+00 3.445834458418E+01 5.789158537357E+01 0.000000000000E+00 8.107146804171E+01 3.467064358250E-01 0.000000000000E+00 -9.678005387662E+01 2.847353736121E+03
 0.000000000000E+00 0.000000000000E+00 0.000000000000E+00 0.000000000000E+00 0.000000000000E+00 0.000000000000E+00 0.000000000000E+00 0.000000000000E+00 0.000000000000E+00 0.000000000000E+00 0.000000000000E+00 0.000000000000E+00 0.000000000000E+00 0.000000000000E+00 0.000000000000E+00 0.000000000000E+00 0.000000000000E+00 0.000000000000E+00 0.000000000000E+00 0.000000000000E+00 0.000000000000E+00 0.000000000000E+00 0.000000000000E+00 0.000000000000E+00 0.000000000000E+00 0.000000000000E+00 0.000000000000E+00 0.000000000000E+00 0.000000000000E+00 0.000000000000E+00
 1.414496788928E+00 1.094592238535E-01 0.000000000000E+00 2.476600492841E+00 6.383396868593E+00 0.000000000000E+00 1.322770810383E+00 1.574506482059E-02 0.000000000000E+00 1.883917442824E+00 6.330086047199E-01 0.000000000000E+00 -2.361572955683E-01 9.024766923491E-01 0.000000000000E+00 -4.570159570932E+00 -1.021036821448E+00 0.000000000000E+00 -1.091091838609E+00 1.141933793946E+00 0.000000000000E+00 -2.661600016368E+00 -2.154104197631E+00 0.000000000000E+00 -1.966793693248E+00 -4.666772961061E-01 0.000000000000E+00 -1.184879457211E-01 -1.232458180393E+00 0.000000000000E+00 2.792109182322E+03
 -2.755936537840E+00 -1.378783805370E+00 0.000000000000E+00 -6.853635358978E+00 -1.311781497290E+01 0.000000000000E+00 -3.043721771138E+00 -8.588918901971E-01 0.000000000000E+00 -4.379256858345E+00 -8.247189327967E-01 0.000000000000E+00 4.308501287674E-01 -2.113394709779E+00 0.000000000000E+00 1.020820711241E+01 4.246339992543E+00 0.000000000000E+00 2.607268257560E+00 -2.114561596640E+00 0.000000000000E+00 7.002283550895E+00 5.367310710048E+00 0.000000000000E+00 4.548504266327E+00 1.472060394830E+00 0.000000000000E+00 4.183061120979E-01 2.673839281242E+00 0.000000000000E+00 3.836504487860E+01 2.724035772930E+03
 0.000000000000E+00 0.000000000000E+00 0.000000000000E+00 0.000000000000E+00 0.000000000000E+00 0.000000000000E+00 0.000000000000E+00 0.000000000000E+00 0.000000000000E+00 0.000000000000E+00 0.000000000000E+00 0.000000000000E+00 0.000000000000E+00 0.000000000000E+00 0.000000000000E+00 0.000000000000E+00 0.000000000000E+00 0.000000000000E+00 0.000000000000E+00 0.000000000000E+00 0.000000000000E+00 0.000000000000E+00 0.000000000000E+00 0.000000000000E+00 0.000000000000E+00 0.000000000000E+00 0.000000000000E+00 0.000000000000E+00 0.000000000000E+00 0.000000000000E+00 0.000000000000E+00 0.000000000000E+00 0.000000000000E+00
 -8.323179751494E-02 -2.216511104086E-01 0.000000000000E+00 5.144166456808E-01 -9.163269136545E-01 0.000000000000E+00 -4.270210860291E-01 8.996835904624E-02 0.000000000000E+00 3.543694091762E-03 1.305705555581E-01 0.000000000000E+00 1.042009309059E-01 -1.694793821477E-01 0.000000000000E+00 1.003249905284E+00 2.461252213018E-01 0.000000000000E+00 3.275309898327E-04 -1.805214638806E-01 0.000000000000E+00 2.206001616059E-01 1.195281370134E-01 0.000000000000E+00 3.132977689450E-01 1.567378977441E-01 0.000000000000E+00 -5.701291102035E-02 3.213036617663E-01 0.000000000000E+00 4.390962907221E+01 7.069716673725E+01 0.000000000000E+00 2.788340412922E+03
 1.458900104900E+00 -5.388853909384E-01 0.000000000000E+00 2.727670777862E+00 5.454423224915E+00 0.000000000000E+00 7.059737686222E-01 -3.818751744395E-02 0.000000000000E+00 1.924129186396E+00 9.682375751146E-01 0.000000000000E+00 -7.840682977625E-02 7.270623534423E-01 0.000000000000E+00 -3.347906381998E+00 -9.775657769163E-02 0.000000000000E+00 -1.103310868351E+00 1.042910240483E+00 0.000000000000E+00 -2.107702298758E+00 -1.839363161838E+00 0.000000000000E+00 -1.568940071879E+00 -2.034081201729E-01 0.000000000000E+00 -2.372057512583E-01 -8.888118492733E-01 0.000000000000E+00 -2.196138995137E+01 2.782657699527E+01 0.000000000000E+00 2.876430872402E+02 2.843589275584E+03
 0.000000000000E+00 0.000000000000E+00 0.000000000000E+00 0.000000000000E+00 0.000000000000E+00 0.000000000000E+00 0.000000000000E+00 0.000000000000E+00 0.000000000000E+00 0.000000000000E+00 0.000000000000E+00 0.000000000000E+00 0.000000000000E+00 0.000000000000E+00 0.000000000000E+00 0.000000000000E+00 0.000000000000E+00 0.000000000000E+00 0.000000000000E+00 0.000000000000E+00 0.000000000000E+00 0.000000000000E+00 0.000000000000E+00 0.000000000000E+00 0.000000000000E+00 0.000000000000E+00 0.000000000000E+00 0.000000000000E+00 0.000000000000E+00 0.000000000000E+00 0.000000000000E+00 0.000000000000E+00 0.000000000000E+00 0.000000000000E+00 0.000000000000E+00 0.000000000000E+00
 -2.142591927542E+01 -3.432754255873E+01 0.000000000000E+00 3.577714176772E+01 -5.455756417068E+00 0.000000000000E+00 -1.051058775654E+00 -2.544552435242E-01 0.000000000000E+00 -1.690568103817E+00 -4.286340519440E-01 0.000000000000E+00 1.398995357481E-01 -7.751525323830E-01 0.000000000000E+00 -1.245779500674E+03 -4.309271447269E+02 0.000000000000E+00 1.005927500436E+00 -8.537838564188E-01 0.000000000000E+00 2.506615020601E+00 1.996157254314E+00 0.000000000000E+00 1.681188673610E+00 4.831423968890E-01 0.000000000000E+00 1.780983129121E-01 9.722532477002E-01 0.000000000000E+00 -5.817618412533E+00 5.636069340374E+00 0.000000000000E+00 -2.210089191562E+00 1.128841597721E+01 0.000000000000E+00 2.766793482490E+03
 3.632357006480E+01 6.068264593015E+01 0.000000000000E+00 -6.764210163051E+01 1.352011368863E+00 0.000000000000E+00 1.345969926564E-01 4.912027113329E-02 0.000000000000E+00 2.453037986020E-01 6.199968288594E-02 0.000000000000E+00 -8.661994671680E-03 1.000537523448E-01 0.000000000000E+00 -4.374112593122E+02 -7.213700594020E+02 0.000000000000E+00 -1.509232296215E-01 1.011081258661E-01 0.000000000000E+00 -3.604123951864E-01 -2.660142458457E-01 0.000000000000E+00 -2.167681709752E-01 -6.402019756562E-02 0.000000000000E+00 -3.491608038988E-02 -1.175977545334E-01 0.000000000000E+00 -3.352886894525E+01 6.101054032288E+01 0.000000000000E+00 4.435427803655E-01 -1.000783381392E+00 0.000000000000E+00 2.044513614384E+01 2.805676228705E+03
 0.000000000000E+00 0.000000000000E+00 0.000000000000E+00 0.000000000000E+00 0.000000000000E+00 0.000000000000E+00 0.000000000000E+00 0.000000000000E+00 0.000000000000E+00 0.000000000000E+00 0.000000000000E+00 0.000000000000E+00 0.000000000000E+00 0.000000000000E+00 0.000000000000E+00 0.000000000000E+00 0.000000000000E+00 0.000000000000E+00 0.000000000000E+00 0.000000000000E+00 0.000000000000E+00 0.000000000000E+00 0.000000000000E+00 0.000000000000E+00 0.000000000000E+00 0.000000000000E+00 0.000000000000E+00 0.000000000000E+00 0.000000000000E+00 0.000000000000E+00 0.000000000000E+00 0.000000000000E+00 0.000000000000E+00 0.000000000000E+00 0.000000000000E+00 0.000000000000E+00 0.000000000000E+00 0.000000000000E+00 0.000000000000E+00
 8.785817764488E-01 -2.733587759395E-04 0.000000000000E+00 -1.709500165364E+01 -2.763517309584E+01 0.000000000000E+00 6.341433716561E-01 7.478128465885E-02 0.000000000000E+00 1.208815994902E+00 4.351932621511E-01 0.000000000000E+00 -9.333129334941E-02 4.870811062596E-01 0.000000000000E+00 -2.370376072929E+00 -6.685933086538E-01 0.000000000000E+00 -7.163113513986E-01 6.228312113780E-01 0.000000000000E+00 -1.555883414335E+00 -1.282669291061E+00 0.000000000000E+00 -1.093507519024E+00 -2.198301390381E-01 0.000000000000E+00 -1.028201660440E-01 -6.104840939333E-01 0.000000000000E+00 2.863246389664E+01 -4.975047226585E+01 0.000000000000E+00 -1.957156030770E+01 3.229127184524E+01 0.000000000000E+00 4.738350257998E+01 6.604653237992E+01 0.000000000000E+00 2.767468633596E+03
 -7.060462059203E-01 -1.830013406480E-01 0.000000000000E+00 3.210566337442E+01 5.270103455125E+01 0.000000000000E+00 -6.066373573616E-01 -1.877620393485E-01 0.000000000000E+00 -1.062904095103E+00 -2.858826944982E-01 0.000000000000E+00 8.502219009378E-02 -4.631777512801E-01 0.000000000000E+00 2.130622182750E+00 7.912283690412E-01 0.000000000000E+00 6.278380816320E-01 -5.080284296456E-01 0.000000000000E+00 1.579096043491E+00 1.276664401201E+00 0.000000000000E+00 1.008132657429E+00 2.763659580009E-01 0.000000000000E+00 1.058829528958E-01 5.710707716926E-01 0.000000000000E+00 7.521747719216E+00 -1.778206496322E+01 0.000000000000E+00 -4.347885500949E+01 7.952695400401E+01 0.000000000000E+00 -6.794540263682E+00 3.726006642212E-01 0.000000000000E+00 -3.174496202166E+01 2.752791127113E+03
 0.000000000000E+00 0.000000000000E+00 0.000000000000E+00 0.000000000000E+00 0.000000000000E+00 0.000000000000E+00 0.000000000000E+00 0.000000000000E+00 0.000000000000E+00 0.000000000000E+00 0.000000000000E+00 0.000000000000E+00 0.000000000000E+00 0.000000000000E+00 0.000000000000E+00 0.000000000000E+00 0.000000000000E+00 0.000000000000E+00 0.000000000000E+00 0.000000000000E+00 0.000000000000E+00 0.000000000000E+00 0.000000000000E+00 0.000000000000E+00 0.000000000000E+00 0.000000000000E+00 0.000000000000E+00 0.000000000000E+00 0.000000000000E+00 0.000000000000E+00 0.000000000000E+00 0.000000000000E+00 0.000000000000E+00 0.000000000000E+00 0.000000000000E+00 0.000000000000E+00 0.000000000000E+00 0.000000000000E+00 0.000000000000E+00 0.000000000000E+00 0.000000000000E+00 0.000000000000E+00
 -3.898459050857E+00 -1.198674389979E+00 0.000000000000E+00 -8.832009898625E+00 -1.748541216368E+01 0.000000000000E+00 -3.838177876837E+00 -8.511857160640E-01 0.000000000000E+00 -5.829317781142E+00 -1.425993139058E+00 0.000000000000E+00 5.202739091588E-01 -2.716168464023E+00 0.000000000000E+00 1.326171133353E+01 4.524825690500E+00 0.000000000000E+00 3.470591393458E+00 -2.918507472740E+00 0.000000000000E+00 8.790686110923E+00 6.786538654277E+00 0.000000000000E+00 5.879297114273E+00 1.737340247154E+00 0.000000000000E+00 5.800489198981E-01 3.442304030564E+00 0.000000000000E+00 -1.185605132119E+03 3.361985306875E+02 0.000000000000E+00 -5.113578911610E+02 2.240226107725E+01 0.000000000000E+00 -3.826630311325E+01 4.838142075746E+00 0.000000000000E+00 2.677763946259E+01 -2.326510667634E+01 0.000000000000E+00 2.717529180535E+03
 -5.298820757082E+00 -4.369450727489E-01 0.000000000000E+00 -8.654752598805E+00 -2.363975307747E+01 0.000000000000E+00 -4.985683293927E+00 -1.105701638821E-01 0.000000000000E+00 -7.057388876825E+00 -2.272132336539E+00 0.000000000000E+00 7.829730010928E-01 -3.524079614418E+00 0.000000000000E+00 1.747967981120E+01 3.670908724585E+00 0.000000000000E+00 4.125131384627E+00 -4.245887436488E+00 0.000000000000E+00 9.838070887207E+00 7.780807434890E+00 0.000000000000E+00 7.443528088522E+00 1.922761350988E+00 0.000000000000E+00 6.136816515236E-01 4.753148675359E+00 0.000000000000E+00 5.120435177577E+02 -8.507709713721E+02 0.000000000000E+00 -3.704844032832E+01 -1.459000671634E+03 0.000000000000E+00 -5.094122795416E+01 6.023196058120E+00 0.000000000000E+00 4.275704585395E+01 -2.918901378810E+01 0.000000000000E+00 -1.515445930085E+02 2.605829065875E+03
 0.000000000000E+00 0.000000000000E+00 0.000000000000E+00 0.000000000000E+00 0.000000000000E+00 0.000000000000E+00 0.000000000000E+00 0.000000000000E+00 0.000000000000E+00 0.000000000000E+00 0.000000000000E+00 0.000000000000E+00 0.000000000000E+00 0.000000000000E+00 0.000000000000E+00 0.000000000000E+00 0.000000000000E+00 0.000000000000E+00 0.000000000000E+00 0.000000000000E+00 0.000000000000E+00 0.000000000000E+00 0.000000000000E+00 0.000000000000E+00 0.000000000000E+00 0.000000000000E+00 0.000000000000E+00 0.000000000000E+00 0.000000000000E+00 0.000000000000E+00 0.000000000000E+00 0.000000000000E+00 0.000000000000E+00 0.000000000000E+00 0.000000000000E+00 0.000000000000E+00 0.000000000000E+00 0.000000000000E+00 0.000000000000E+00 0.000000000000E+00 0.000000000000E+00 0.000000000000E+00 0.000000000000E+00 0.000000000000E+00 0.000000000000E+00
 5.983471619275E-01 6.618435719191E-01 0.000000000000E+00 1.986604751849E+00 3.047575490235E+00 0.000000000000E+00 8.571702569789E-01 4.238165223133E-01 0.000000000000E+00 1.142799754924E+00 3.871499840980E-02 0.000000000000E+00 -9.945929294234E-02 5.835117373894E-01 0.000000000000E+00 -2.238381463075E+01 3.343225036218E+01 0.000000000000E+00 -6.928715682009E-01 4.507943217781E-01 0.000000000000E+00 -2.111515382482E+00 -1.547055887298E+00 0.000000000000E+00 -1.234394545975E+00 -5.115829355419E-01 0.000000000000E+00 -1.401584238219E-01 -7.043588613367E-01 0.000000000000E+00 -1.230328817839E+03 -4.025963244818E+02 0.000000000000E+00 -1.522664909912E+00 -4.396268973249E+00 0.000000000000E+00 -1.163604093885E+03 4.238809546055E+02 0.000000000000E+00 -4.759747243558E+02 -8.493137372760E+00 0.000000000000E+00 4.472259751829E+00 -1.690942216990E+01 0.000000000000E+00 2.744819387498E+03
 8.175168281528E-01 2.439318819171E-01 0.000000000000E+00 1.939837534858E+00 3.678388154419E+00 0.000000000000E+00 7.511776658570E-01 2.273502885539E-01 0.000000000000E+00 1.234750659934E+00 3.107983341937E-01 0.000000000000E+00 -1.154954499728E-01 5.492716826462E-01 0.000000000000E+00 -3.520964292118E+01 5.715632445523E+01 0.000000000000E+00 -7.297490725694E-01 6.055891745145E-01 0.000000000000E+00 -1.896349564481E+00 -1.544611320200E+00 0.000000000000E+00 -1.208474220400E+00 -3.403169984200E-01 0.000000000000E+00 -1.079528067113E-01 -6.864701040664E-01 0.000000000000E+00 -4.356176926207E+02 -6.901817148514E+02 0.000000000000E+00 1.595867162169E+00 -6.284039039109E+00 0.000000000000E+00 4.340908949986E+02 -7.199413417794E+02 0.000000000000E+00 -9.054917464743E+00 -1.492581500350E+03 0.000000000000E+00 6.220125940696E+01 9.325822005236E+01 0.000000000000E+00 -1.066004690245E+00 2.804218292246E+03
 0.000000000000E+00 0.000000000000E+00 0.000000000000E+00 0.000000000000E+00 0.000000000000E+00 0.000000000000E+00 0.000000000000E+00 0.000000000000E+00 0.000000000000E+00 0.000000000000E+00 0.000000000000E+00 0.000000000000E+00 0.000000000000E+00 0.000000000000E+00 0.000000000000E+00 0.000000000000E+00 0.000000000000E+00 0.000000000000E+00 0.000000000000E+00 0.000000000000E+00 0.000000000000E+00 0.000000000000E+00 0.000000000000E+00 0.000000000000E+00 0.000000000000E+00 0.000000000000E+00 0.000000000000E+00 0.000000000000E+00 0.000000000000E+00 0.000000000000E+00 0.000000000000E+00 0.000000000000E+00 0.000000000000E+00 0.000000000000E+00 0.000000000000E+00 0.000000000000E+00 0.000000000000E+00 0.000000000000E+00 0.000000000000E+00 0.000000000000E+00 0.000000000000E+00 0.000000000000E+00 0.000000000000E+00 0.000000000000E+00 0.000000000000E+00 0.000000000000E+00 0.000000000000E+00 0.000000000000E+00
 -8.087335479602E-01 -6.596290581561E-02 0.000000000000E+00 -2.197471571516E+00 -3.238628643750E+00 0.000000000000E+00 -5.425740551103E-01 -2.226460860471E-01 0.000000000000E+00 -1.272486163913E+00 -4.129800983371E-01 0.000000000000E+00 4.505764204911E-02 -4.912161411023E-01 0.000000000000E+00 2.220862983404E+00 7.646472597933E-01 0.000000000000E+00 7.510754997359E-01 -5.414415824660E-01 0.000000000000E+00 1.720139375154E+00 1.382092605111E+00 0.000000000000E+00 1.074669135708E+00 2.652588851978E-01 0.000000000000E+00 1.666137956483E-01 5.550655512202E-01 0.000000000000E+00 9.113122297131E+00 -2.087150646470E+01 0.000000000000E+00 -1.513672423405E+03 -5.217018068196E+02 0.000000000000E+00 -6.918654002599E+00 8.104115367402E-01 0.000000000000E+00 -1.272343245415E+03 4.322189811386E+02 0.000000000000E+00 2.279197172816E+01 -3.710339005395E+01 0.000000000000E+00 4.513924481255E+01 4.482331668275E+00 0.000000000000E+00 3.073162390575E+03
 3.831922436714E-01 1.269486628672E-01 0.000000000000E+00 1.017198040555E+00 1.610962692566E+00 0.000000000000E+00 3.302478800163E-01 1.231733805768E-01 0.000000000000E+00 6.094156214729E-01 1.533581126611E-01 0.000000000000E+00 -3.278121592061E-02 2.603204579008E-01 0.000000000000E+00 -1.244579128003E+00 -4.818000648655E-01 0.000000000000E+00 -3.643803317092E-01 2.587538131595E-01 0.000000000000E+00 -8.979842119332E-01 -6.860296736783E-01 0.000000000000E+00 -5.620611037894E-01 -1.692732835530E-01 0.000000000000E+00 -7.662135485242E-02 -3.090516495631E-01 0.000000000000E+00 -4.200980579501E+00 1.032746277341E+01 0.000000000000E+00 -5.348241021303E+02 -8.652792569898E+02 0.000000000000E+00 3.589675695637E+00 -3.741180337262E-01 0.000000000000E+00 4.187536118821E+02 -7.250787955728E+02 0.000000000000E+00 -7.315754288218E+01 1.843700743502E+01 0.000000000000E+00 6.896060070567E+01 -3.111262375030E+00 0.000000000000E+00 9.056770968756E+01 2.535954469388E+03
 0.000000000000E+00 0.000000000000E+00 0.000000000000E+00 0.000000000000E+00 0.000000000000E+00 0.000000000000E+00 0.000000000000E+00 0.000000000000E+00 0.000000000000E+00 0.000000000000E+00 0.000000000000E+00 0.000000000000E+00 0.000000000000E+00 0.000000000000E+00 0.000000000000E+00 0.000000000000E+00 0.000000000000E+00 0.000000000000E+00 0.000000000000E+00 0.000000000000E+00 0.000000000000E+00 0.000000000000E+00 0.000000000000E+00 0.000000000000E+00 0.000000000000E+00 0.000000000000E+00 0.000000000000E+00 0.000000000000E+00 0.000000000000E+00 0.000000000000E+00 0.000000000000E+00 0.000000000000E+00 0.000000000000E+00 0.000000000000E+00 0.000000000000E+00 0.000000000000E+00 0.000000000000E+00 0.000000000000E+00 0.000000000000E+00 0.000000000000E+00 0.000000000000E+00 0.000000000000E+00 0.000000000000E+00 0.000000000000E+00 0.000000000000E+00 0.000000000000E+00 0.000000000000E+00 0.000000000000E+00 0.000000000000E+00 0.000000000000E+00 0.000000000000E+00
 -4.192154939047E-01 8.733735500728E-02 0.000000000000E+00 -1.224884939190E+03 4.462378753338E+02 0.000000000000E+00 -2.665760177649E-01 9.394800415982E-03 0.000000000000E+00 -5.643522284477E-01 -2.541291271058E-01 0.000000000000E+00 4.128546419007E-02 -2.161148740958E-01 0.000000000000E+00 4.162064007359E+01 -3.782776914361E-01 0.000000000000E+00 3.258261654952E-01 -2.983975796991E-01 0.000000000000E+00 -1.930368523472E+01 3.660503898711E+01 0.000000000000E+00 4.931383132903E-01 7.249592830316E-02 0.000000000000E+00 4.717846985193E-02 2.782769739689E-01 0.000000000000E+00 5.792111184527E+00 -8.796847782331E+00 0.000000000000E+00 -2.100770724085E+00 4.598632792699E+00 0.000000000000E+00 -3.459906524912E+00 3.311631335579E-01 0.000000000000E+00 -1.138493948745E+03 -3.899113355567E+02 0.000000000000E+00 -1.279829800698E+01 -2.334370593568E+01 0.000000000000E+00 3.795426823792E+01 1.773728679511E+00 0.000000000000E+00 -1.931202203099E+01 -3.137709395920E+01 0.000000000000E+00 2.729849139576E+03
 -7.851196051138E-03 3.798875474260E-02 0.000000000000E+00 4.571024870327E+02 -7.450624022943E+02 0.000000000000E+00 3.768842108353E-02 -2.586440279162E-02 0.000000000000E+00 -5.493123413928E-02 -4.661476380677E-02 0.000000000000E+00 -2.039149020613E-02 -1.344345426905E-02 0.000000000000E+00 6.690479929148E+01 -8.064565568984E-01 0.000000000000E+00 2.322559830279E-02 3.307045075920E-04 0.000000000000E+00 -3.280241660356E+01 5.945676679043E+01 0.000000000000E+00 1.142193918958E-02 1.122704220029E-02 0.000000000000E+00 3.526450299584E-02 -9.320155038823E-03 0.000000000000E+00 1.663681615571E-01 -8.874892864258E-01 0.000000000000E+00 -6.833223122111E-01 -8.222634868031E-01 0.000000000000E+00 -7.574202740937E-02 4.450355902625E-02 0.000000000000E+00 -3.867159341935E+02 -6.668007607710E+02 0.000000000000E+00 -6.025038721698E-01 -1.091139385600E+00 0.000000000000E+00 -6.474557643262E+01 3.719825533126E-01 0.000000000000E+00 3.185369903314E+01 5.762670072726E+01 0.000000000000E+00 -7.018718632930E+00 2.820921464955E+03
 0.000000000000E+00 0.000000000000E+00 0.000000000000E+00 0.000000000000E+00 0.000000000000E+00 0.000000000000E+00 0.000000000000E+00 0.000000000000E+00 0.000000000000E+00 0.000000000000E+00 0.000000000000E+00 0.000000000000E+00 0.000000000000E+00 0.000000000000E+00 0.000000000000E+00 0.000000000000E+00 0.000000000000E+00 0.000000000000E+00 0.000000000000E+00 0.000000000000E+00 0.000000000000E+00 0.000000000000E+00 0.000000000000E+00 0.000000000000E+00 0.000000000000E+00 0.000000000000E+00 0.000000000000E+00 0.000000000000E+00 0.000000000000E+00 0.000000000000E+00 0.000000000000E+00 0.000000000000E+00 0.000000000000E+00 0.000000000000E+00 0.000000000000E+00 0.000000000000E+00 0.000000000000E+00 0.000000000000E+00 0.000000000000E+00 0.000000000000E+00 0.000000000000E+00 0.000000000000E+00 0.000000000000E+00 0.000000000000E+00 0.000000000000E+00 0.000000000000E+00 0.000000000000E+00 0.000000000000E+00 0.000000000000E+00 0.000000000000E+00 0.000000000000E+00 0.000000000000E+00 0.000000000000E+00 0.000000000000E+00