#BIOSYM hessian 1
@Type: Hessian Update
@Units
 distance: 	A
 energy: 	Kcal/Mol
#header
@natom 69

#label
C1      C2      C3      C4      C5      C6      C7      C8      C9      C10     C11     C12     C13     C14     C15     C16     C17     C18     C19     C20     C21     C22     C23     C24     C25     C26     C27     C28     C29     C30     C31     C32     C33     C34     C35     C36     C37     C38     C39     C40     C41     C42     C43     C44     C45     C46     C47     C48     C49     H50     H51     H52     H53     H54     H55     H56     H57     H58     H59     H60     H61     H62     H63     H64     H65     H66     O67     O68     H69

#element
C  C  C  C  C  C  C  C  C  C  C  C  C  C  C  C  C  C  C  C  C  C  C  C  C  C  C  C  C  C  C  C  C  C  C  C  C  C  C  C  C  C  C  C  C  C  C  C  C  H  H  H  H  H  H  H  H  H  H  H  H  H  H  H  H  H  O  O  H 

#matrix
207
 2.808653744905E+03
 -3.533867421115E+00 2.492810311947E+03
 3.752727130317E+00 -1.085060337473E+01 1.821625133614E+02
 4.065180226075E+01 7.236504337536E+01 -2.775020818484E-01 2.957685678910E+03
 -1.044197123164E+00 1.317287075236E+00 5.633472492592E-02 -3.299410362650E+01 2.910117881139E+03
 -1.179984051159E-02 9.844993441945E-02 1.005315892646E+01 6.474137201872E+00 -1.318324862666E+01 1.976098680275E+02
 -2.409809297164E+01 3.810802367590E+01 -5.294669224311E-01 -1.428415528836E+00 2.780941395799E+00 -6.740384942908E-03 2.744690818484E+03
 -3.373867316423E+01 6.282696382733E+01 -4.126844835915E-01 -1.567867053803E+00 -2.678068063573E+00 7.451219737628E-02 1.149458944302E+01 2.516361364836E+03
 2.110891260738E-01 -1.619927100468E-01 7.327571498533E+00 1.909625459908E-02 9.089312753444E-02 -1.485993329101E-01 3.109352508577E+00 -9.398896156282E+00 1.668802789940E+02
 3.862752159970E+01 -7.178980742900E+01 4.784050896835E-01 -1.900191464833E+01 3.475109991685E+01 -2.280071770367E-01 4.486897697415E+01 7.240249171990E+01 -1.700712174388E-01 2.869617269109E+03
 -1.848645650657E+00 1.566617495407E+00 1.980790962387E-01 -3.626126764268E+01 5.878847120326E+01 -2.477903186436E-01 7.132194233744E+00 -9.998829957720E-01 1.645611057033E-01 -1.489867072534E+01 2.876587478790E+03
 4.026152648453E-02 -1.004132120276E-01 1.034461873913E+01 1.092293349930E-01 -1.211408772435E-01 9.408526598410E+00 7.322774042908E-03 1.123658784816E-01 1.017311853897E+01 4.135844756236E+00 -1.147578617788E+01 1.922279795900E+02
 -2.240063724207E+00 -1.028340766657E+01 5.971422742464E-01 2.339950708535E+00 -5.328786264600E+00 -1.417633540286E-02 5.524335602462E+01 -7.826788373013E+01 6.943193295368E-01 -2.874905343854E+01 2.566314179717E+01 -2.176113337254E-01 2.956685832198E+03
 -8.627692849261E-01 -9.456798965456E+00 7.530414724957E-01 -2.913349191310E-01 4.399848390975E-02 -1.368785028528E-01 2.815256693325E+00 -6.737146321824E+00 8.949921213062E-03 -3.713264783630E+01 6.013723836893E+01 -3.128033001947E-01 -4.171566399160E+01 2.963381415015E+03
 -9.754072351241E-02 2.877849561790E-01 -2.161787255521E-01 -7.195680366068E-02 -1.078748756432E-01 8.951683443485E-02 -5.085788278835E-01 5.020631272883E-01 7.073625852147E+00 8.868248733952E-02 -6.540155194356E-01 7.551307375561E+00 5.049880383557E+00 -1.138945751345E+01 1.593748125297E+02
 -1.241606533972E+03 4.530524153184E+02 -3.827821185506E+00 -4.999119325442E+02 -4.354042672539E+00 -7.106697254909E-01 -8.451501174315E-01 1.310181018926E+00 -3.413136446408E-02 1.423748330231E-01 2.746988169772E+00 -1.153269213432E-02 4.049681098852E+00 3.196587565686E+00 3.092913997826E-03 2.979580804966E+03
 4.623647110430E+02 -7.539220636147E+02 3.966033446442E+00 3.865524664875E+00 -1.513836341517E+03 6.900462746294E+00 -1.237135164663E+00 2.854253265115E+00 6.128531045685E-03 2.978035143751E+00 5.932821975961E-02 -3.631062036260E-02 4.241862957952E+00 -4.855091674007E-01 -7.110713783824E-03 4.108374823473E+01 2.924896131411E+03
 -3.793059386137E+00 3.770575768819E+00 -8.277650532304E+01 -8.354449506245E-01 6.784043240922E+00 -8.685835776201E+01 1.040160281475E-01 2.458579833469E-02 4.861165036171E+00 -3.936690973535E-02 -1.197678717249E-01 -9.659710659897E+00 -1.993655766872E-01 -1.464326115715E-01 -2.111293461112E-03 4.087710188658E+00 -1.304986313647E+01 1.985362421723E+02
 -1.255524746932E+03 -4.449545666988E+02 1.987712172108E-01 -1.355706210522E+00 -7.819638669509E-01 1.136243660664E-01 -1.252755999339E+03 4.448439464364E+02 -3.335270564772E+00 -4.921138885566E+02 1.950270319237E+00 -4.981160352334E-01 4.166925705128E+00 4.466636455368E+00 2.772396580925E-01 -1.970521285780E+01 -3.555021671937E+01 1.378621361662E-01 2.889647397703E+03
 -4.620120126981E+02 -7.297007924895E+02 2.208762454659E+00 -5.219479625840E-01 -3.959672417303E-01 -4.732616812251E-02 4.588668331171E+02 -7.344077410357E+02 3.122186608772E+00 3.250641043808E+00 -1.514926440720E+03 6.063303243652E+00 5.216682511329E+00 -1.087061815269E+00 5.933089851158E-02 3.574186116102E+01 6.177829612742E+01 -1.621103212457E-01 -6.049594227038E-01 2.856550557760E+03
 4.513499714694E-01 2.282091476320E+00 -8.091328803970E+01 1.720204476615E-02 -5.394193150245E-02 -9.761922338254E+00 -3.209545516547E+00 3.137097742371E+00 -7.928055146483E+01 -5.876722749361E-01 5.959302984261E+00 -8.411029328071E+01 -1.386457507766E-01 -1.441210181463E-01 -9.895079691652E+00 -2.077280115291E-01 -3.193407827434E-01 9.306769147245E+00 3.293904326588E+00 -1.119812912681E+01 1.900707987230E+02
 2.827971752073E+00 -4.944847771455E-01 7.761179438958E-02 -1.247419259506E+03 -4.610212090092E+02 -4.338061848607E-01 -1.904007281510E+00 1.332390119113E+00 3.412035382967E-02 -1.236998441826E+03 4.717367698314E+02 -3.920862469793E+00 1.818718609950E+00 1.981300222441E+00 -1.255952656096E-01 3.889496102449E+01 -1.256258700483E+00 7.486001019153E-02 4.299336315851E+01 7.217202450686E-01 4.738481156854E-02 2.786810656297E+03
 1.017407512029E+00 1.642869210758E+00 -8.986223108802E-02 -4.496764018638E+02 -7.385454878108E+02 1.969913761274E+00 7.446124973279E-01 -5.047248627490E-01 8.240095575581E-02 4.559821828338E+02 -7.501652524080E+02 3.580823125690E+00 4.084704259078E+00 7.886119388926E+00 -1.037820901033E-01 -7.322799094626E+01 2.480911366000E+00 -8.952981741371E-02 7.077824905971E+01 1.918634175917E+00 1.992141576957E-01 1.358337203296E+00 2.491061192795E+03
 3.368013776779E-02 -4.642497434267E-02 -9.955731813616E+00 -3.668370924690E-01 2.056419382823E+00 -8.095554548198E+01 -1.782077275313E-03 6.019490635339E-02 4.819478602756E+00 -3.984465441259E+00 3.649905870059E+00 -8.090870909186E+01 -9.419447026916E-02 -5.171008700778E-02 4.986578740859E+00 3.966608224372E-01 3.580549687902E-02 1.021726761051E+01 -2.058101414915E-01 1.066584018676E-01 1.088483522964E+01 4.808999918965E+00 -9.944805668847E+00 1.833717054671E+02
 3.543143057948E+00 -1.290939273762E+01 1.038081320804E+00 5.447078593207E+00 8.731874451288E+00 -2.183247018507E-01 -1.212732084929E+03 -4.520901080230E+02 3.171851117474E-01 2.032781541698E+00 3.864251407257E+00 -4.619261616424E-02 -5.945928699328E+02 3.477454193347E+01 -1.031661062220E+00 -2.145079729693E+00 -9.208752770916E+00 -1.475248756758E-01 -1.703536882425E+01 -3.405878305582E+01 4.412147992191E-02 -1.014298912343E+00 6.822687875431E+00 -1.053522794435E-01 2.801620854386E+03
 6.470220073510E+00 1.565548104350E+00 -1.991408475213E-01 5.399656505607E+00 1.112439168206E+01 -2.562805677941E-02 -4.614778524860E+02 -7.587155360472E+02 2.060243425849E+00 3.354451325203E+00 8.520453003529E+00 1.647593121234E-02 6.972980899939E+00 -1.484420004705E+03 4.453285884085E+00 -7.485160286260E+00 -1.236678062763E+01 1.859455085890E-01 3.662602032717E+01 6.130978403690E+01 3.388560261290E-02 -5.691048733204E+00 -1.525173499845E+00 3.205134493804E-02 2.536621126203E+01 2.741136044978E+03
 -1.129110005629E-02 -9.951041075980E-02 4.949080529340E+00 1.609621568947E-02 -2.639100556884E-02 -9.878526488672E-02 4.451900837420E-01 1.855466129047E+00 -6.660160833178E+01 2.762899249700E-02 6.322006595410E-02 -9.558497855656E+00 -1.655975816735E+00 6.825786364923E+00 -6.477720981786E+01 3.747834547629E-02 9.965579317422E-02 6.523869476973E-02 -2.983910776117E-01 -2.673360659418E-01 6.423772668571E+00 8.271611413166E-02 4.176918232599E-02 -1.028666500416E-02 4.657821132393E+00 -1.008304956227E+01 1.371553605857E+02
 -2.629461078113E-02 1.083463997136E+00 -1.582546753709E-01 -1.765784614681E+00 2.196209619728E+00 -3.992314898903E-02 -1.091835674364E+00 6.191373164596E-01 -3.371506450893E-02 -1.245039650020E+03 -4.569821200925E+02 2.652134529018E-01 -1.219708826171E+03 4.444891449346E+02 -3.726043350784E+00 -2.371522157422E-01 -3.311337848045E+00 1.008153004192E-01 4.055851080827E+01 -3.783700592036E+00 1.332006774748E-01 -2.773545127018E+01 -3.359061570908E+01 1.017977399214E-01 3.703604968703E+01 -1.310220177968E+01 1.457185262350E-01 2.809941646143E+03
 -8.716667487097E-01 6.986630498092E+00 -5.495969240818E-01 -1.231953026256E+00 -3.401227251755E+00 1.382456218143E-01 -2.401656869880E-01 -7.986329363592E+00 -2.622658351334E-02 -4.482569950718E+02 -7.376826269457E+02 2.171801984758E+00 4.732589731583E+02 -7.873088781673E+02 3.816456834281E+00 -3.008317775386E-01 4.221754010309E+00 1.071092320356E-01 -7.574096727108E+01 -5.503024761518E-01 3.838614137082E-03 3.440740178445E+01 5.682245886084E+01 -1.513387199243E-01 9.945264751943E+01 2.010287928706E+01 -3.494054251499E-01 2.677037658518E+00 2.500654308964E+03
 1.227755933431E-01 -2.295423918076E-01 5.148806316207E+00 1.085302149661E-01 4.628885826379E-02 4.767384839571E+00 4.063129312513E-01 -5.677307116222E-01 -1.014139642938E+01 3.991818717870E-01 2.149118266486E+00 -8.194414648375E+01 -3.959165451668E+00 3.333419112049E+00 -7.629285165013E+01 3.793795202128E-02 7.585250556499E-02 2.645333140162E-02 1.642942346877E-01 6.737810719021E-02 1.061129807940E+01 -1.311456212998E-01 -1.355803215885E-01 6.024912980731E+00 1.261755344489E-01 1.397282645876E+00 1.051642996528E+01 3.777723207670E+00 -9.663704905597E+00 1.776865231195E+02
 -1.501946683767E+00 1.032239129849E-02 -1.316890191581E-02 2.249284540411E+00 -7.700459872326E-01 4.691064235099E-02 5.666035976699E+00 2.247475455752E+00 4.065444223837E-02 -3.239661946586E+00 -2.954319259982E+00 2.881721400215E-02 -7.662253433889E+00 1.974700083640E+00 -8.058516430925E-02 -2.065555004480E-01 5.169538832595E-01 -1.276491454713E-02 -4.083594611082E-01 2.401845100945E+00 -1.377208584363E-02 1.771629441492E-01 -1.542221027465E+00 -3.774513998923E-03 -4.524051484078E+00 -4.705662819908E+00 1.612883563037E-02 5.232709199509E+00 2.971118074429E-01 -1.043089245871E-01 2.800941058436E+03
 -8.780248630641E-02 -3.233485872452E+00 1.366856554685E-02 -1.293027261769E-01 5.805159402385E-01 2.318418117872E-02 -2.777972009222E-01 -6.404916696634E-01 -6.737643153441E-02 3.333018807335E-01 5.414160192260E-01 -5.645446202155E-03 -5.361768507883E+00 -6.485489583672E+00 2.102118294538E-01 8.284725068079E-01 -2.983097224853E-01 3.054809220966E-02 1.178620789923E+00 2.348688542852E-02 -2.092834138259E-02 -1.461586251141E-01 2.316887586061E+00 2.888423584584E-02 -6.274636235835E+00 2.831692122524E+00 -9.525370286984E-02 -5.676519546201E-01 4.017467003244E+00 -2.762322768948E-01 2.448959737316E+00 2.487159756362E+03
 7.265284140032E-02 -3.922488706447E-02 7.694730048156E-01 5.603495191752E-02 -2.576895258092E-02 -1.861702008779E-01 9.379668607800E-02 -2.689199220991E-01 3.295846522479E-01 5.461956167058E-02 -2.223799208809E-02 -9.466691991645E-02 -1.249631107872E-01 1.284926567940E-01 -2.389944035030E-01 -1.189223629469E-02 1.121944232998E-01 5.116267019686E+00 -9.820915084585E-02 1.439039375490E-02 6.569329358242E-02 8.044839247119E-02 1.017762823281E-01 -1.499900309249E-01 5.128457073425E-01 6.287145439721E-01 2.330404878055E-01 1.243410947156E-01 -1.521292932965E-01 3.716553406787E-01 6.264500083337E+00 -1.467030291782E+01 1.789035737797E+02
 1.398940260903E+00 2.346692625120E+01 -9.647331082352E-01 -1.342118352576E+01 1.052946562384E+00 -5.145984904639E-02 -3.453545500508E+01 -1.328277889279E+01 -2.690921380998E-01 1.405960699893E+01 1.348525929017E+01 -1.445377071149E-02 5.029193219276E+01 1.590337125247E+01 -3.919964360870E-01 -2.302583138108E+00 1.311009191291E-01 3.523884084586E-01 -4.296657317465E+00 -1.443717344207E+01 2.636955273218E-01 9.775889324415E-02 -7.549430082363E+00 1.804404585604E-01 7.368576571539E+01 3.717486424276E+01 1.745798690259E-02 -2.412837437987E+01 -3.319809658954E+01 8.695400663558E-01 6.579202902569E+01 8.352361681562E+01 -3.137505420806E-01 3.044380893188E+03
 -6.109744214823E+00 -1.225932372961E-01 -7.346435239644E-02 -1.275785862932E+01 -1.003403842467E+01 -9.712938887403E-02 -1.543670605717E+01 -5.130224313802E+01 1.358822400592E-01 6.611950234137E+00 -1.396574438658E+00 -7.951546551173E-02 -7.612463450039E+00 -4.006546039027E+01 6.571784498493E-01 8.494464302178E+00 1.007421885508E+01 9.922394577686E-02 8.394771193396E-01 -8.186706768361E+00 3.853827080624E-02 4.440053180567E+00 8.777005473507E+00 6.904450146532E-02 9.723653641204E+01 1.827924385718E+02 -1.025702127035E+00 4.076945459014E-01 -1.988515205478E+01 -3.055965763297E-02 2.547179220562E+01 -5.944772554080E+00 -8.182060581828E-02 -2.338048278423E+02 2.884052721195E+03
 2.977736996047E-03 1.982206237972E-01 -3.219580394560E-01 4.898048852643E-02 1.405530030064E-01 6.104511130198E-02 -1.619508691890E-01 6.930745287378E-01 -1.427908937565E-01 1.834777629931E-03 1.298696211789E-01 4.330641029712E-02 5.711404748136E-01 5.009934057900E-01 1.275270201404E-01 -1.165133390532E-01 -1.893846112094E-01 2.431613187193E-03 8.842604860584E-03 -2.666321061034E-02 -4.708054305736E-02 -1.236741230076E-01 -2.114979874940E-01 6.922305351626E-02 -9.756692629167E-01 -2.394532146426E+00 -1.122860881360E-01 -2.831703585675E-01 9.339681212533E-02 -1.980887590808E-01 -3.664320214383E-02 3.329232670840E-01 9.019260881484E+00 1.064703196205E+01 -2.035289493397E+01 1.837932792498E+02
 -2.738148825339E+01 -3.593811826159E+01 1.782508379693E-01 4.403492022706E+01 1.343985698614E-01 4.987814069663E-02 -1.098313728651E+00 1.873941416076E-02 3.073858331746E-02 6.859367395487E-02 -8.924792988173E-01 9.804774557922E-03 -1.992251154686E+00 -1.364057928736E+00 -1.022084693511E-03 -1.347839106444E+03 -5.057224751089E+02 4.065333216833E-01 -2.251528289755E-01 -4.434413238079E-01 1.488425714155E-02 -2.633553633890E-01 4.667981919130E-01 7.331103115338E-04 1.057263355584E+00 4.046214069551E+00 -3.076884742791E-02 -5.115941872179E-01 -1.402640732339E-01 -4.563137319740E-02 -2.448649482814E+01 3.522357323748E+01 -2.430768069615E-01 3.380462967800E+00 -3.218013301529E+00 1.210516367192E-02 2.904434081493E+03
 3.699938739379E+01 6.112733960524E+01 8.795244953785E-04 -7.532772022643E+01 1.862193614536E-01 -1.055817798601E-01 2.083006292794E+00 -2.363592571853E+00 2.360393379697E-02 -9.429567083890E-01 -2.080109062787E-01 -3.330241417503E-02 -1.274863752986E+01 -1.055467526843E+01 2.907219096618E-01 -4.887036725134E+02 -7.859541050049E+02 2.724579401256E+00 1.896704925981E+00 1.930351917136E-01 -1.471014915238E-02 3.466753291061E-01 2.361490188805E+00 1.739035143484E-02 -6.202062615752E+00 1.124527331793E+01 -1.655618251918E-01 1.874573559123E+00 4.813902941401E+00 -2.803774338021E-01 -3.417231426127E+01 5.741830002979E+01 -4.390260689256E-01 2.068443658550E+01 -1.113536972707E+01 3.357206568231E-01 4.052567565732E+01 2.523201788386E+03
 -1.383243166258E-01 -1.293661003780E-01 7.744116591149E+00 4.323560197651E-01 9.188389208896E-02 1.144173712580E+01 -2.090662985803E-01 -1.723510224554E-01 6.113523641707E-01 1.539174848572E-01 6.868423097111E-02 -1.562110105075E-01 3.551169433932E-01 5.473075001850E-01 -2.302818235663E-01 3.166890971535E-01 2.729183644300E+00 -8.608483387626E+01 -2.391279344395E-01 -2.000101884650E-02 5.254396289947E+00 7.814275601401E-02 8.212412267838E-02 5.011279143434E+00 8.054017918831E-01 -4.691068159320E-03 1.651563852394E-01 -9.018195551071E-02 -3.961071397259E-01 2.866212419697E-01 1.180002596495E-01 -2.686969280975E-01 6.179035577702E+00 -5.287261435777E-01 2.267309624578E-02 -2.358098260229E-01 4.995676916317E+00 -1.265102460603E+01 1.858460247226E+02
 3.243016373504E-01 -3.583630971433E+00 4.120089814990E-01 -2.193709525829E+01 -3.521234135401E+01 1.570988758751E-02 -9.826665169538E-01 1.635569025001E+00 5.858300494334E-02 2.360193836938E+00 2.752319178138E+00 -4.209922341751E-02 5.051841962449E-01 -6.126224128805E+00 -1.241685495707E-02 -1.124568303148E+00 -1.861958343384E+00 -3.055680592605E-02 2.124156326212E+00 -1.676488718473E+00 -2.893079266818E-03 -1.072630932610E+00 3.402033832766E+00 -3.694323874481E-03 -1.172008483071E+01 -6.099540188203E+00 8.394009133830E-02 -3.465548925661E+00 7.345407401870E+00 2.758008447326E-01 4.681959079059E+01 -7.330570694716E+01 7.197237676030E-01 -2.110028192376E+01 3.226037566651E+01 -3.995657954874E-01 4.234898460593E+01 6.912473195029E+01 -1.683204577271E-02 2.920834817924E+03
 9.650985501289E-02 -1.812465440144E+00 1.295257537295E-01 4.014711337374E+01 6.517301399094E+01 -1.417057419205E-01 6.409992785310E+00 1.657250670723E+00 7.699395529970E-02 -3.328253642022E+00 -3.177368023396E+00 1.018189015035E-02 -1.026847176877E+01 -7.708999594332E-01 9.692698936957E-03 1.533234463872E+00 -1.743021566815E-01 -1.021140806218E-01 -4.246139921822E-03 2.502106532510E+00 -3.750633052862E-02 8.209275001664E-01 -3.639924810653E-01 1.525546939094E-04 -6.602652091589E+00 -3.320586165072E+00 -1.432828690368E-02 4.900959668054E+00 1.979724389268E+00 -1.240256594760E-01 -5.623349708312E+00 -1.920235114429E+00 8.665006532489E-02 -4.299590330838E+00 8.578945802731E+01 -3.541204635223E-01 -1.149349605559E+00 -1.648397888283E+00 1.166916353465E-01 2.978971406969E+01 2.857900472132E+03
 -1.012611114505E-02 -2.760369793839E-02 -7.983919996857E-02 -2.490026174021E-01 -2.374666147783E-01 9.800191317019E+00 -5.801608312423E-02 -2.489240573701E-02 -2.636327371249E-02 7.759583804063E-02 9.228145511158E-02 -9.242910869619E-03 4.932494121746E-02 -1.573156329833E-02 -3.739288958821E-02 7.592219098978E-02 -1.260581702741E-01 -1.025350409417E+01 1.386210194776E-03 -6.334098031687E-02 -1.344622480397E-02 -5.856553184171E-02 7.690226811571E-02 5.073197714685E+00 -4.465571061414E-02 -5.373129451829E-02 4.588809362646E-02 -8.154769280054E-02 4.836456640073E-02 4.185940362164E-02 1.365422844278E-01 -2.997612901838E-01 1.052934858542E+01 2.840054033524E-01 -3.976839861196E-01 5.411256350288E+00 -2.440063883996E-02 1.393169198842E-01 1.151642906806E+01 8.864605078714E+00 -1.574285584021E+01 2.037911791606E+02
 6.367993033382E-01 1.760473591429E-01 -1.688831971762E-01 8.597965693696E-01 1.717820404361E+00 4.341098519690E-02 1.106743333623E+00 3.989483587089E+00 -4.984184194602E-02 -3.667865233565E-01 1.027251718929E+00 2.967011289428E-02 1.395181759161E-01 5.260254195972E+00 -1.026925047037E-01 -3.385477043317E-01 -1.262393493988E+00 1.996907461846E-02 -4.507950650172E-01 4.114117070320E-01 8.414700802561E-03 -3.030464643410E-01 -4.905103108159E-01 8.599766737805E-03 -8.179663048607E+00 -1.829942404412E+01 8.433224973152E-02 -2.878700086252E-01 1.850005328784E+00 -7.747191899091E-02 -1.252577603574E+03 4.479433304437E+02 -5.634826786103E+00 -5.395265427643E+02 -4.297017338928E+01 -1.081458113192E+00 -6.063742169772E-01 9.317864230240E-01 -1.562513899805E-01 -6.529592383255E-01 -3.667144185292E+00 -1.214000538235E-01 2.795531428310E+03
 -3.599965650478E-01 -4.786987926668E+00 3.886433004232E-01 4.528132782893E+00 -9.714418068935E-01 1.637478590717E-02 1.229656387262E+01 9.479148399498E+00 1.120636397915E-01 -6.417831113913E+00 -5.997829272834E+00 -7.876371912221E-03 -1.501946667706E+01 -5.088989195702E-02 1.787137082815E-01 3.833146642718E-01 1.402994891576E+00 -1.785169773309E-01 8.238321704666E-01 6.074843923674E+00 -1.235567464775E-01 1.453112226236E-01 -1.738388488512E+00 -7.471475874241E-02 -2.598587852249E+01 -2.440500368846E+01 2.822257142286E-02 8.996811837323E+00 6.743859957295E+00 -3.577074436356E-01 4.558247952169E+02 -7.292002296139E+02 5.245324554466E+00 5.195424170495E+01 -1.446299462009E+03 9.910959912418E+00 3.286086495546E-01 -4.224891752470E+00 2.368636126167E-01 5.203456410970E-01 -9.853090735166E+00 6.432516495306E-02 -2.966882881873E+01 2.800768107186E+03
 5.121290825452E-02 -1.256372690763E-01 1.767271033239E-01 1.287607669537E-02 1.063461339032E-02 -4.856611626754E-02 9.493888435513E-02 -2.797614558926E-01 7.170682574369E-02 3.711875298137E-02 2.768858862286E-03 -2.673399646362E-02 -2.421382565997E-01 -1.648266478836E-01 -1.060006591057E-01 2.888922720870E-02 1.089588464987E-02 -2.699452413766E-03 3.461357762602E-03 -5.724358815582E-03 2.779917365772E-02 4.987240654399E-02 1.429839431380E-01 -4.960015416713E-02 2.767912044643E-01 8.489390963209E-01 1.001207143952E-01 1.010218481968E-01 5.174814355225E-02 1.784855488182E-01 -5.676611433585E+00 5.185243000966E+00 -8.244845194216E+01 -1.268298320449E+00 9.782697474196E+00 -7.803469672692E+01 -2.096849015258E-02 -1.086925645187E-01 5.025161166739E+00 2.207593854536E-02 -1.295473143346E-01 -9.444388149948E+00 6.112922888512E+00 -1.830478531303E+01 1.851093029614E+02
 3.095115079712E-01 -1.283592898936E-01 -2.723286295530E-02 -1.108391419859E+00 4.911599717127E-01 -1.360627906308E-02 -2.668804270885E+00 -1.247841539075E+00 -3.412304446465E-02 1.336806456630E+00 1.629260400981E+00 -1.212634072197E-02 2.997267358881E+00 -1.400803951227E+00 2.826532002656E-02 -2.146908947477E+01 3.706562523768E+01 -2.564584708778E-01 6.538527342496E-01 -1.183157782832E+00 1.101539643548E-02 3.167879467772E-02 5.294521630933E-01 8.243351842121E-03 1.319443809219E+00 2.642571863331E+00 -1.682464422555E-02 -2.022772929070E+00 3.200597719581E-01 6.253242033429E-02 -1.247086530600E+03 -4.508250402664E+02 -7.423445874547E-02 -1.126008282751E+01 -1.141097389695E+01 1.660982268212E-01 -1.244519396208E+03 4.491699103061E+02 -4.762157460819E+00 -4.969267937239E+02 6.406439894877E+00 -9.883448956336E-01 -1.912242264066E+01 -3.014500344622E+01 1.078055947126E-01 2.881334621237E+03
 1.540210001379E+00 8.501512694295E-01 -6.814619099111E-05 -9.992030946569E-01 3.918520406022E-01 -5.521945672031E-02 -6.617317945027E+00 1.616738458719E+00 -6.358988124896E-02 4.226424753185E+00 4.067600205157E+00 -1.766703900005E-02 1.390317277096E+01 2.243195706896E+00 -1.090822426386E-01 -4.008867885949E+01 6.258378463512E+01 -3.600751544788E-01 2.315182738718E-01 -2.388123234283E+00 4.190589796488E-02 -1.255051998147E+00 1.847060308154E+00 2.843510406929E-03 -1.872538560834E+00 -1.035015876230E+01 1.653174552590E-01 -6.637403016866E+00 1.281976387672E+00 2.619031772709E-01 -4.601340305972E+02 -7.382981839289E+02 2.893916285237E+00 -2.840181215454E+01 -4.189487903708E+00 -2.153762344420E-01 4.690757433640E+02 -7.422629606444E+02 4.609894299555E+00 2.224888112147E+00 -1.509881056187E+03 8.488991162069E+00 3.625701181166E+01 7.418852666835E+01 -2.054741964400E-01 -7.483785978744E+00 2.865261680025E+03
 1.069840461590E-02 -3.761904940152E-02 5.209605735002E+00 7.769430434029E-02 -1.203500787123E-01 -1.021932477055E+01 1.160835695281E-01 -6.422912492129E-02 1.891032222776E-02 -4.755704918552E-02 -5.377083858143E-02 -2.090720336681E-03 -2.500370283609E-01 -1.149648685052E-01 -2.279333247113E-02 1.109023458293E-01 -2.281487282747E-01 1.041745991167E+01 7.533367940955E-03 4.125926273821E-02 -9.335029371834E-03 1.296927642303E-03 4.855846909994E-02 1.712663055129E-02 -3.053465114521E-02 3.247552333916E-01 4.155289582821E-02 1.158795802642E-01 7.833371936678E-02 6.725047339009E-02 1.580099494557E-02 2.850559104379E+00 -8.059296400907E+01 4.407578094309E-01 3.675804811878E-02 -1.065594552651E+01 -4.916046959041E+00 4.558776404133E+00 -8.244109461002E+01 -1.206501159507E+00 8.229082178751E+00 -8.727235150924E+01 -3.150409051603E-01 -6.869802510609E-01 1.032964657579E+01 5.896720855558E+00 -1.533966291335E+01 1.950935324628E+02
 -8.573715194726E-01 -4.528545536181E+00 5.881014367450E-02 3.924839656779E+00 -1.150703949915E+00 9.760736761548E-02 1.098574650135E+01 4.748095072532E+00 2.602975847725E-02 -5.747966735667E+00 -5.032763720030E+00 2.850783374081E-02 -2.110691883779E+01 -2.807039162125E+00 2.770967556051E-01 8.421499842543E-01 1.487242162521E+00 -1.142604295329E-01 1.029459512342E-01 4.938293527256E+00 -1.179638679974E-01 3.978406166401E-01 -3.253643798805E-01 -2.641777991870E-02 -1.878963484953E+01 -1.138700457857E+01 -1.240739226967E-01 9.079018035485E+00 5.330626175525E+00 -7.563148383392E-01 -1.152447063386E+01 -2.795246669197E+00 -3.322988306940E-01 -1.222714546686E+03 -2.761273786742E+02 -3.104365499732E+00 -1.078141239268E+00 -4.611134960543E+00 -1.133513572109E-01 -1.315350376008E+03 3.595953955197E+02 -6.670302664253E+00 3.860504721694E+01 -2.459730616633E+01 4.367051949565E-01 4.478322373544E+01 9.333705835769E+00 -3.791513960644E-02 3.055582907935E+03
 -1.125218303840E+00 -2.083461558090E+01 1.125812485855E+00 8.368868993949E+00 -3.881498890790E-01 -7.283604476938E-02 2.214082281301E+01 7.776627469667E+00 2.488235731030E-01 -8.097560250576E+00 -8.548775559398E+00 -5.287032243446E-02 -3.492643455684E+01 -2.168060016595E+01 3.451487471901E-01 2.257250404709E+00 -1.224434891494E+00 -2.800191678501E-01 5.897087234207E+00 9.222216630817E+00 -1.846617940532E-01 -1.923827978412E-01 8.617019565996E+00 -1.586106362944E-01 -5.749322586985E+01 -1.687982533941E+01 7.307522801930E-03 1.431058946830E+01 2.895304863910E+01 -2.459145587132E-01 -1.616642697644E+01 -8.074829396102E+00 8.426433733079E-02 -3.152373310552E+02 -7.784861560640E+02 4.378374209920E+00 -1.904228935643E+00 -1.817159138221E+01 7.867923500727E-01 4.079540477155E+02 -7.655898922437E+02 5.743513583979E+00 -8.046174038977E+01 -4.397418410628E+01 -3.225694377234E-01 7.745900483985E+01 1.495678554637E+01 3.972270402284E-02 -8.954631050189E+01 3.043075841857E+03
 -8.425715512072E-02 3.480892145980E-01 5.928841613749E-02 -1.003857985922E-01 -2.417975080349E-01 5.232306141325E+00 -1.243731244007E-01 5.030753417681E-02 2.533832774807E-02 -5.880013018511E-02 -1.394612552171E-01 -8.154445959020E-03 3.469266741444E-01 3.237003707343E-01 2.292279982989E-02 -8.939357350845E-02 2.205878233675E-01 -5.992110695745E-04 -1.172180893081E-01 6.820258469680E-03 3.060240606417E-03 8.787691837682E-03 -3.083208541692E-01 -1.941643406352E-02 7.443557690921E-01 1.226849954299E-01 -2.853984687213E-02 -2.172529473018E-03 -5.744970588378E-01 -3.894551002092E-02 -5.440474398223E-02 7.009878586759E-01 -1.066610978277E+01 -2.469529141774E+00 4.403622803814E+00 -8.512046552100E+01 1.186471332123E-01 3.364838075298E-01 4.878782391598E+00 -6.156813434637E+00 5.501558803714E+00 -8.501946358384E+01 1.087669801289E+00 1.098353134740E-01 6.224064861248E+00 -8.018772825269E-01 -1.814213231287E-01 5.726411969598E+00 1.078139047440E+01 -2.007675934754E+01 1.972518554128E+02
 -1.202291464357E+00 9.064224449425E-01 -8.293859183815E-02 -1.319150677334E+03 4.942695480664E+02 -5.327847184469E+00 1.333452921683E-01 -2.786121615126E+00 2.158290611482E-02 -2.590556788152E+00 -2.730637545225E+00 9.109134149262E-05 -5.051875099405E+00 -5.468910213492E-01 1.882664074070E-01 4.445850218941E+01 1.446510436455E+00 6.767114822294E-02 -3.873235869569E-01 1.718013233669E+00 -3.800490075817E-02 -2.702567067217E+01 3.442214100651E+01 -2.529144577831E-01 1.045985380778E+01 1.539929357065E+01 -1.912649019219E-01 1.308513221827E+00 -5.966804158263E+00 -3.310294132192E-01 -2.258916615775E+00 1.359322589060E+00 -1.989793816731E-01 2.783886391780E+00 -1.185305041194E+01 2.657704942562E-01 -7.532821853186E-01 3.712140299326E-01 -1.153536761170E-01 -1.248615556188E+03 -4.662583372614E+02 -1.089627803170E+00 1.436369170894E+00 -1.694109651045E+00 -1.251492346837E-01 4.124519106240E+01 4.849589405374E+00 2.740859506668E-02 -2.117771196856E+01 -3.550303181057E+01 8.620814892426E-02 2.898220017498E+03
 -2.335748534536E-01 7.091327611333E+00 -3.740210004625E-01 4.806385640856E+02 -7.843860489033E+02 4.563938276832E+00 -3.231493749011E+00 -5.255139811573E+00 -1.576694721467E-02 1.518315917115E-01 -4.583894436683E-01 5.707980274011E-02 1.124847324619E+01 9.671924407631E+00 -1.927373464009E-01 7.405710223960E+01 2.891005595852E+00 3.363791098645E-01 -2.671098047777E+00 -8.936464345593E-01 5.717463754922E-02 -3.414713279164E+01 6.119731258488E+01 -3.922189279431E-01 2.570963253033E+01 1.494239549211E+01 -2.766012258201E-02 1.337988056263E+00 -1.155443991161E+01 1.600086320789E-01 2.243913188080E+00 3.734028378837E+00 1.369431265054E-02 -4.233852134848E+01 -2.352976873496E+01 6.258507043001E-02 1.682425037215E-01 4.961751468673E+00 -2.819984570902E-01 -4.388496662653E+02 -7.326897504586E+02 2.122907716794E+00 2.001998716985E+00 1.011974673282E+01 6.536536399728E-02 -7.127470488434E+01 -2.675297909977E-01 -4.764757435017E-02 4.270290546526E+01 9.608925254190E+01 -6.648185080691E-01 -1.080370952605E+01 2.533494784779E+03
 4.723596217037E-02 -2.479066235535E-01 5.475464270103E+00 -5.462301964888E+00 4.544974491175E+00 -8.545272311794E+01 3.179719868565E-01 -3.157611512197E-01 1.161267786966E-01 -2.060726903798E-02 -6.958395083897E-02 5.057680468609E+00 -5.649468855328E-01 -2.331117224887E-01 -1.824933163324E-01 -2.139179837678E-01 1.797698085106E-01 1.184112619450E+01 3.975175523391E-03 6.486801328540E-02 6.154165162658E-02 2.900932759985E-01 -2.942136300070E-02 6.227008277659E+00 1.308401805299E-01 9.768315377242E-01 2.214527511313E-01 2.773617120387E-01 1.118510329972E-01 3.108730046732E-01 -1.304592455273E-01 -2.200922542597E-01 5.120322598603E+00 8.861863234130E-01 -7.766753639505E-02 5.384025380428E+00 6.067411146785E-02 -3.617110358329E-01 -9.962352912768E+00 -1.061620546344E+00 2.087168112640E+00 -9.160717882956E+01 -9.025298230762E-03 -3.115794685039E-01 1.115788859530E-02 5.286168604181E-01 2.474059386897E-01 1.056524264026E+01 -8.635755375211E-01 -9.233846340827E-01 1.466552814905E+01 7.239530983516E+00 -1.149659421267E+01 1.916134812070E+02