#BIOSYM hessian 1
@Type: Hessian Update
@Units
 distance: 	A
 energy: 	Kcal/Mol
#header
@natom 67

#label
C1      C2      C3      C4      C5      C6      C7      C8      C9      C10     C11     C12     C13     C14     C15     C16     C17     C18     C19     C20     C21     C22     C23     H24     C25     C26     C27     C28     C29     C30     C31     C32     C33     C34     C35     C36     C37     C38     C39     C40     C41     C42     C43     C44     C45     C46     C47     C48     C49     H50     H51     H52     H53     H54     H55     H56     H57     H58     H59     H60     H61     H62     H63     H64     H65     H66     H67

#element
C  C  C  C  C  C  C  C  C  C  C  C  C  C  C  C  C  C  C  C  C  C  C  H  C  C  C  C  C  C  C  C  C  C  C  C  C  C  C  C  C  C  C  C  C  C  C  C  C  H  H  H  H  H  H  H  H  H  H  H  H  H  H  H  H  H  H 

#matrix
201
 2.734265076382E+03
 -5.031736306092E+01 2.810273822846E+03
 -1.048519122371E+02 -2.790784752788E+01 1.976635520971E+02
 3.936250627225E+01 6.547419639147E+01 -7.080050821570E+00 2.788610359381E+03
 -2.385992033464E+00 -2.258919037723E+00 -2.089721163118E+00 -2.249568253562E+01 2.761438596083E+03
 -5.278955649302E-01 -1.886011934072E+00 7.879509096581E+00 -4.239424597198E+01 -9.513964136861E+01 1.980923381641E+02
 -3.084315225812E+01 2.881964168646E+01 2.054883435777E+00 1.113915825774E+00 -1.169284573233E+00 -1.701566032349E-01 2.802073374681E+03
 -2.976584678607E+01 6.143943125787E+01 4.257806663799E+00 -1.472917028933E+00 1.086528047753E+00 6.120056788895E-01 -3.331748380640E+01 2.813854442470E+03
 2.833117412503E+00 -2.799606278971E+00 9.316095548446E+00 5.998615955902E-02 8.086621093902E-01 8.367586204343E-01 -1.103946373184E+02 3.007670540980E+01 2.002038886013E+02
 3.545031186923E+01 -7.020647427387E+01 2.444876604160E+00 -1.947424983515E+01 3.565580124403E+01 2.965659726023E-01 4.010039675342E+01 7.161740623134E+01 -3.541131009890E+00 2.779324333262E+03
 -1.031161540156E+01 -3.178790915045E+00 -6.893864227748E-01 -3.173072930343E+01 5.803237389210E+01 -1.093522906287E+00 -4.749848008198E+00 8.866595195946E-01 -1.969210159024E-01 -2.183158797219E+01 2.832283427688E+03
 -1.524302318049E+00 3.903469327799E+00 9.839318297056E+00 1.899146692563E+00 -9.438688425635E-01 8.424878259425E+00 -2.882186857111E+00 -4.522721413814E+00 8.660444327157E+00 -6.375955217971E+01 -4.507591674974E+01 1.971019536819E+02
 -4.187186435428E+00 -1.641105271720E+00 1.234291721173E+00 1.309000341728E+00 -7.845719542622E-01 1.296838452671E-01 4.012507205878E+01 -7.207464343814E+01 -3.683002080476E-01 -2.128963244037E+01 3.673115226837E+01 1.623264325458E+00 2.630445361590E+03
 -1.732949197562E+00 -1.128411527456E+00 5.590369348419E-01 2.442522867594E-01 -2.464848597879E-01 8.526808401384E-02 -2.977419924409E-01 2.121353021440E-01 3.924232644632E-01 -3.541649067812E+01 6.222100730091E+01 1.543817512523E+00 -2.227254991645E+02 2.898817465572E+03
 -6.690259622636E-01 -2.540763432788E-01 -1.075909202480E-01 5.607442927844E-02 -1.351648354116E-01 1.174411786120E+00 -7.403863371496E-01 2.695029586490E+00 1.097545403783E+01 1.280779168046E+00 -1.392078627955E+00 1.032190348362E+01 -7.389077736092E+01 6.378632689550E+00 1.571875700991E+02
 -1.191986074143E+03 4.705502082123E+02 2.735623741443E+01 -4.587490022653E+02 -1.147933592497E+01 1.352199406361E+01 1.135762450593E+01 -3.357959163175E+00 -1.543923678048E+00 3.494308223736E+00 9.405059906531E+00 -1.239526362216E+00 2.994091569116E+00 1.619127891153E+00 5.962627135958E-01 2.789445730931E+03
 4.541314104564E+02 -7.344443790370E+02 5.017750338967E+00 -1.217460622403E+01 -1.427433063743E+03 6.235640898873E+01 3.374026916828E+00 -2.791310441881E+00 -2.046567223239E-01 -4.746463833853E-01 3.058719314702E+00 6.375837340471E-01 1.623082309921E+00 6.523072326045E-01 3.677722009781E-01 -2.062552297464E+01 2.763009023181E+03
 1.600261009358E+01 -5.757270903469E-01 -8.319991739011E+01 1.440320386820E+01 6.410272115609E+01 -8.647776769990E+01 1.435897129812E-01 -1.230786169779E+00 4.401571325565E+00 -1.179873039269E+00 -1.328191224886E+00 -8.395605317633E+00 -7.969271025254E-01 -6.428349064319E-01 -1.202341515383E+00 -8.770205059326E+01 -1.312874050477E+02 2.135617874514E+02
 -1.167440654336E+03 -3.947817726769E+02 5.951554517342E+01 -4.282854750605E+00 2.574543257787E+00 7.661976456074E-01 -1.248066853379E+03 4.443481743937E+02 5.697968631651E+01 -4.770092493185E+02 -5.144976562117E+00 1.718439389325E+01 4.154171399946E+00 1.317950082656E+00 -1.000295846674E-02 -4.169825083791E+01 -4.054880796129E+01 3.745074528072E+00 2.785639413674E+03
 -3.952519345715E+02 -7.019416625104E+02 2.825701288592E+01 -1.370784598155E+00 1.558127062622E+00 -1.726695898476E-01 4.565815006326E+02 -7.448586867268E+02 -2.019369110123E+01 -1.596952129256E+01 -1.508620088640E+03 2.397365236838E+01 1.464454087245E+00 7.697389705794E-01 -5.438390346160E-02 2.437005543930E+01 5.558414724502E+01 -1.030009841237E+00 -4.182875402887E+01 2.840547781046E+03
 6.734978533985E+01 3.341609986847E+01 -8.687112136325E+01 -6.317820834976E-03 9.368416780263E-01 -6.582559097178E+00 5.415130726018E+01 -2.117085884851E+01 -8.679448724336E+01 1.399350445994E+01 2.102873413570E+01 -8.608125467721E+01 -1.154404442481E+00 -4.707388579745E-01 -8.680478601536E+00 1.907103753696E-01 -7.068359465405E-01 6.298686592563E+00 -1.315292243879E+02 -3.202573713811E+01 2.062522025650E+02
 -1.198502345087E+00 -1.033757799025E+00 -1.495582314698E+00 -1.222449140159E+03 -4.177982885828E+02 2.981769815868E+01 -1.000919245558E+00 1.380827394611E+00 8.155048204706E-01 -1.220379723625E+03 4.422124172137E+02 1.527777555271E+01 -9.710394413515E-01 -3.055790062336E-01 9.392723972296E-03 3.624937805524E+01 2.457572386112E+00 -2.763212961152E-01 4.470855066439E+01 1.128935948798E+00 1.003136320980E+00 2.804710283365E+03
 2.103979309961E+00 7.153035533718E-01 2.212099094959E+00 -4.200080709205E+02 -7.005037774714E+02 2.339631142240E+01 8.188076578298E-01 -7.873750514132E-01 -5.793464857108E-01 4.418772522979E+02 -7.407554322987E+02 1.930118912653E+00 5.344232092397E-01 2.153605886352E-01 -7.301653348202E-03 -6.840231228141E+01 -9.482048840348E-01 4.222604271397E-01 6.721704327447E+01 -1.891081762652E+00 -1.277029689467E+00 -4.016262319308E+00 2.808167517903E+03
 -5.860834919594E-02 -1.125813227545E-01 -9.234947196173E+00 2.573894338107E+01 2.329438841368E+01 -8.213209005776E+01 3.971328327189E-01 2.174317459659E-01 5.052660147671E+00 1.477546070366E+01 2.266273362034E+00 -8.409897665912E+01 -7.866568679716E-02 -2.416336572826E-01 5.608719116455E+00 3.691876024496E+00 2.750168005172E-01 7.486410554829E+00 -1.165017976938E+00 9.477983356720E-01 1.079490504861E+01 -4.974229142840E+01 -5.000815355883E+01 1.971766950937E+02
 6.804577474928E+00 2.154567730513E+00 -4.653517322548E-01 -1.808275102752E+00 9.831272881907E-01 1.362979509033E-02 -1.190833518219E+03 -4.092902030431E+02 4.049652684455E+01 3.092726392190E-01 2.170422444235E+00 -4.019911023434E-01 -5.177770848332E+02 6.503281058327E+00 1.583444056503E+01 -5.062595417756E+00 -1.663528299518E+00 1.091576871351E-01 -2.665379807526E+01 -3.605664707364E+01 1.211075274284E+00 1.226279611883E+00 -8.160771474460E-01 1.557793735728E-01 2.766166668637E+03
 9.832261327283E-01 1.493226778274E+00 -1.314116600184E+00 1.183998387942E+00 -3.666199150345E-01 -1.017951781218E+00 -4.159452236653E+02 -7.055757663643E+02 1.013356474072E+01 -3.205634344209E-01 9.776884112687E-02 -1.128983882588E+00 7.383916915123E+00 -1.636016758304E+03 -5.599311433631E+00 -2.167396260899E+00 3.422909797235E-01 1.196357563459E+00 3.559813405019E+01 5.933069339478E+01 -1.297102036877E+00 -7.620570254859E-01 3.371466870233E-01 -2.577783216108E-01 -2.655343738383E+01 2.958502062595E+03
 -5.392935281978E-02 4.195580394648E-03 5.300744963972E+00 -4.861032007205E-02 7.684368624216E-02 -2.734520028269E+00 4.248565056385E+01 1.020612253910E+01 -8.588451634282E+01 -4.270902414298E-01 8.349527743990E-01 -9.227067939718E+00 1.452930709278E+01 -7.595793811032E+00 -7.917866343593E+01 4.948051293941E-01 3.507664600962E-01 1.522224127594E+00 4.786933892329E-01 1.960039765560E+00 7.754167302676E+00 -3.427381936441E-01 5.949850207821E-03 -1.114998123319E+00 -1.014526660873E+02 1.777314013249E+01 1.889572164947E+02
 6.092668460699E+00 2.812251096863E+00 -1.279902739004E+00 -6.498558027261E-01 5.484195432475E-01 -4.436797862943E-01 2.098583390944E+00 -1.512508430646E+00 -1.572007390358E+00 -1.196842186935E+03 -4.117543674391E+02 3.428167845762E+01 -1.331930464814E+03 4.967625982137E+02 3.427846433347E+01 -5.660158654840E+00 -1.002714141238E+00 1.290371542525E+00 3.364876483545E+01 -2.314180489723E+00 -1.280678970131E-01 -1.885483424334E+01 -3.319710658927E+01 1.392341886200E+00 4.751507328065E+01 4.358867508618E-01 1.213310991436E-02 2.880190656146E+03
 1.546269704221E+00 4.322975145131E-01 4.571768512167E-01 -8.223726454519E-01 3.182944130338E-01 6.698354482352E-01 5.733852690466E-01 -6.317919574500E-01 5.086710356609E-01 -4.057539872910E+02 -7.013972162853E+02 1.976887378490E+01 4.951104465984E+02 -8.220238169934E+02 -9.748901471184E+00 -8.638274400258E-01 -5.893485913520E-01 3.785851310673E-01 -7.065699033885E+01 -6.957425689794E-02 1.638230267600E+00 3.520189917561E+01 5.773697881861E+01 -1.620470312504E+00 8.011335757331E+01 8.927370136796E-01 -2.522446481394E+00 -9.761671215660E+01 2.844168022635E+03
 -2.019122202301E-01 -1.985996552099E-01 4.210765963187E+00 5.242922411890E-01 1.252486882617E-01 5.372791178847E+00 1.995426076016E-01 -1.820857671979E-01 -9.588154530511E+00 3.652990383981E+01 2.158906401490E+01 -8.470240553784E+01 3.130957748570E+01 -9.850637339635E+00 -7.836892187347E+01 -2.007057775143E-01 9.230246193533E-02 -2.756951311125E-01 5.686368195774E-01 -1.300753836016E-01 1.095248986914E+01 -2.528229354043E-01 -1.074123585962E+00 8.698581911094E+00 -3.846050877951E-01 6.609979561553E-01 9.881159786289E+00 -7.782576916057E+01 -2.686150554484E+01 1.858174993775E+02
 2.893602058218E+01 1.301444999742E+01 -8.141474264744E-03 6.243834847542E-01 9.230504383624E-01 8.219321189874E-01 1.040314746972E+01 -3.595559798163E+00 -7.641154069023E-01 3.385469684514E+00 8.379323319165E+00 -6.806343966756E-01 3.054703620183E+00 1.200458654140E+00 7.329664983854E-01 -3.078551077758E+01 -2.306215304833E+00 3.777984496072E+00 -2.093930247333E+01 -8.850404683558E+00 2.617412689719E+00 9.262787857810E-02 -1.903676440077E+00 8.845600704349E-01 -5.930374798466E+00 -5.100623651640E-01 -4.890889411292E-01 -5.190708955466E+00 -1.588441973993E+00 5.739362665677E-01 2.759685306607E+03
 -8.359743770676E+00 -4.841973200032E+00 1.119408432412E-01 -2.196496081115E+00 5.470374706657E-01 7.331941275457E-01 -2.351379387334E+00 8.507643581050E-02 1.933295946162E-01 -1.250623552884E+00 -1.927717734528E+00 -3.872646304441E-01 -3.068409818754E-01 -3.402407251954E-01 9.019608840343E-02 1.132717240280E+01 -1.780808252773E-01 1.211076046869E+00 4.448332548724E+00 2.126381824096E+00 6.136208436199E-01 1.393776412913E+00 -1.251366122528E-01 2.367172543687E-01 6.965193488911E-01 8.991222866615E-01 -9.643199746372E-01 1.190865487359E+00 -6.438883382454E-02 2.463617994543E-01 1.833270616998E+01 2.795946631635E+03
 7.596452274757E-01 5.824623480492E-01 5.306085203804E-01 -3.852673828959E-02 1.055669002909E+00 -3.737366134137E+00 -2.252067098153E-01 -9.483665084788E-01 -8.078531249677E-01 -1.213432882804E-01 6.760272648057E-01 9.470691699899E-01 1.955524720443E-01 1.180624764045E-01 -1.733741428714E+00 -6.217454813350E-01 -1.029231262794E+00 8.270239764392E+00 -2.190828612873E+00 -4.437252065156E-01 -3.939954802424E+00 -5.100340694601E-01 7.239796535177E-02 -1.947605511396E+00 -3.972954488351E-01 1.211970919650E+00 3.190202866596E+00 1.078804302356E-01 -2.956126860854E-01 -9.268959974847E-01 1.616600213082E+02 2.078295036665E+01 2.096270245576E+02
 5.391230890356E-01 1.746174451520E-01 1.279976468614E-02 1.436664133404E+00 -7.169139771387E-01 4.462296860243E-02 -4.896165860102E-01 7.943885919782E-01 3.626581171050E-01 3.968293302271E-01 -6.158696717362E-01 1.524991550088E-01 -5.758506626358E-01 -1.908518166520E-01 1.442138497205E-01 -2.241048067937E+00 1.735949475954E+00 -1.341949387805E+00 1.633219859073E+00 6.519179124387E-01 -9.162976387324E-02 -1.133346418993E+00 3.686956805829E-01 1.212392616481E-01 3.802122334310E-01 -2.436057523245E-01 -2.102496219284E-01 1.323177265872E-01 1.537295388079E-01 1.341634977238E-01 3.971581230635E+01 7.329067543641E+01 -3.315462525832E+00 2.768120039024E+03
 -7.667986399682E+00 -3.607604834446E+00 3.222005691814E-01 1.406200350414E+00 -1.177435105507E+00 -1.015390879813E-01 -3.527709747875E+00 1.899950524548E+00 3.230975954563E-01 -5.220660925103E-01 -3.166083066758E+00 2.914673656829E-01 -1.627472549665E+00 -6.396174008805E-01 -4.994343150718E-03 6.653525073514E+00 3.218623669123E+00 1.191679420643E-01 8.393509756514E+00 3.515571056471E+00 -8.688416184428E-01 -1.360205304371E+00 8.245622880554E-01 -1.802016934821E-01 2.247123011296E+00 -1.428277557554E-01 5.061136718040E-02 1.698102244896E+00 6.702397838318E-01 -2.193960450617E-01 5.350499658977E+00 -1.738290984803E+00 -5.189257966552E-01 2.785890242081E+02 2.860997013331E+03
 -4.556145650598E-02 -5.117632679678E-01 6.482570884449E-01 -1.070652126536E+00 3.165010829456E-01 -4.358360871080E-01 4.715524619452E-01 -5.904588464855E-01 -5.897482048061E-01 -2.677318978127E-01 1.908446469706E-01 1.767917317773E-01 8.079674052266E-04 -1.522690681958E-01 3.453613425911E-01 1.514005376646E+00 1.478295142537E+00 -9.768757411466E-01 1.054131867259E-01 5.480768894020E-01 4.765860520632E-01 6.478561727593E-01 -5.428010528362E-01 4.048228356316E-01 -5.286667439947E-02 2.479561817739E-01 7.629340491962E-01 7.940087079308E-02 -1.066489594000E-01 -5.355758616497E-01 4.476512852844E+00 4.056329646215E+00 1.072010772067E+01 1.149020118855E+02 -1.085176608907E+01 1.562738268798E+02
 -2.163316346125E+01 -3.837585872369E+01 3.710030683421E+00 3.959290954030E+01 3.320305897613E-01 -3.995344960502E+00 -1.243369802753E+00 8.843025804484E-01 6.706735448503E-02 -9.547934362382E-01 -2.522837824790E+00 3.840682741368E-01 -1.524498589220E+00 -6.831541144297E-01 -5.811203729383E-01 -1.251283843340E+03 -4.224925842021E+02 4.009738936281E+01 5.379886223736E+00 3.056267637762E+00 -5.333782161921E-01 1.661012980876E-01 7.451508994541E-01 -3.230156558705E-01 2.340385626323E+00 -7.677151947370E-02 4.374574016046E-01 2.389828782085E+00 1.265257741428E+00 -2.686899344679E-01 -5.937282314271E+00 3.393180048232E+01 -2.171011095080E+00 2.524662256083E-02 -1.438337727642E+00 3.008374909971E-01 2.717764651798E+03
 -7.438382070045E+00 3.417591275371E+01 -3.056131099563E-01 -6.747853524117E+01 -6.760301696107E+00 3.762300861838E+00 -2.054317510947E+01 8.254770779120E+00 2.091346146886E+00 -1.657288911196E+00 -1.954797980681E+01 3.453162577362E-01 -7.288719697555E+00 -4.538353049825E+00 3.736998785510E-01 -3.784326129681E+02 -6.916262087193E+02 7.157942348900E+01 4.404833623883E+01 2.214796723447E+01 -4.192470170799E+00 -6.306122999678E+00 3.696032212112E+00 -5.804096252514E-01 6.142890010972E+00 6.034455385814E+00 -1.796394539901E+00 7.748728473352E+00 4.848769575977E-01 3.414349555327E-02 -4.428728437736E+00 4.976749145921E+01 1.762367548744E+00 -7.267163303758E+00 -1.638476354551E+01 -2.909022258753E+00 1.815647002164E+01 2.567485897372E+03
 2.142026847162E+01 1.425228810837E+01 9.493837830528E+00 -3.776431892127E+00 6.037788682215E+00 9.171900410656E+00 1.068455304846E+01 -3.376290879545E+00 -2.217398995323E+00 2.682935530659E+00 6.977340120814E+00 -3.324392081037E-01 4.591325187375E+00 1.763758185084E+00 5.875093234060E-01 3.888136934093E+01 5.773331154976E+01 -1.063543927040E+02 -2.359175462674E+01 -9.086018231515E+00 6.307305773171E+00 4.047416962791E+00 -3.389918154788E-01 5.137287077144E+00 -5.420925088296E+00 -1.977785086309E+00 2.276530032089E+00 -5.425130950263E+00 -3.507847830437E-02 -1.197380388020E+00 -2.035124092651E+01 7.772645485813E+00 6.943615057941E+00 -2.582040321021E-01 4.822870986723E+00 3.205813310968E+00 -6.558650685494E+00 -3.814795734621E+02 3.608362507344E+02
 -1.040136736908E+00 -3.736508110276E-01 -5.009148194037E-01 -1.597309908542E+01 -3.344084723852E+01 1.875621826147E+00 -1.749299696925E+00 1.972052148252E+00 5.511675929850E-01 6.283720934493E-01 -1.927140349420E+00 4.079883940594E-01 -1.433343902204E+00 -4.919363259358E-01 4.015506732503E-01 -2.549713517961E+00 4.750312417424E+00 -2.251734516224E+00 5.400847242034E+00 2.188060027482E+00 -5.704309348914E-01 -2.527443908872E+00 8.546082732862E-01 1.734341901567E-01 1.411067569997E+00 -6.605893988477E-01 -1.164805815078E-01 6.655009630820E-01 5.696557065924E-01 -2.715291346087E-02 3.803318374595E+01 -6.656136555164E+01 8.192132471132E+00 -2.428131681620E+01 3.759928220020E+01 -4.029797711644E+00 4.091018564964E+01 5.381499816182E+01 6.680624203287E+00 2.768509260285E+03
 -4.954564289693E-01 -1.323826929465E+00 1.184915812901E+00 3.450128948238E+01 5.528808433366E+01 -1.848646830708E+00 -1.195447915659E+00 7.148693236310E-01 2.541389002801E-01 3.131618611947E-01 -1.192221196931E+00 2.695525692408E-01 -8.001134686776E-01 -4.272935424640E-01 -1.716954264084E-01 -1.629554037272E-01 3.943429247459E+00 -4.168359341009E+00 2.866804815435E+00 1.650818642761E+00 -4.133360497772E-01 -1.359080932266E+00 1.956148653128E-01 1.782324336703E-01 1.990031430117E-01 5.934270214408E-01 8.477956018851E-02 3.405985559021E-01 -1.656652253305E-01 3.810976452723E-02 -1.230023580171E+00 -3.495937297766E-02 -3.426199919096E+00 -4.412584333913E+01 7.255259559487E+01 -1.174213043627E+00 -8.617342796766E-01 -1.795976066702E+01 7.406991927901E+00 -4.201813957988E+01 2.746489914735E+03
 -4.645737190108E-01 -3.505240232005E-01 -2.570568336821E+00 -1.278274346075E+00 9.878921963831E-01 1.557482014027E+01 -4.121606844251E-01 1.588603086809E+00 2.741994467117E+00 -3.252642651730E-01 2.124673525625E-01 -2.086978519896E+00 -4.396425213171E-01 2.337577440888E-01 2.078738314067E+00 -1.718588510232E-01 6.176971149928E-01 -1.286597964225E+01 2.840923892341E+00 -7.585535883227E-01 5.319102126147E+00 -2.815573616764E-01 -5.298025077379E-01 6.542836572406E+00 5.642402003451E-01 -1.891921856960E+00 -7.235888518137E+00 -3.550510306593E-01 -8.768904946853E-03 2.903249475515E+00 4.424501230580E+00 -1.933466569296E+00 2.577178933993E+00 -2.767897997265E-01 1.420612212218E+00 8.673276488326E+00 4.510163847376E-02 6.540332097143E+00 2.317815921267E+00 4.890462964366E+01 -9.976727929988E+01 2.106464872523E+02
 -2.053990440928E+01 -8.629846342548E+00 3.483448969475E-01 2.068194136419E+00 -1.859091792425E+00 -9.508459829577E-01 -8.153712208141E+00 3.942573799444E+00 5.224466289093E-01 -2.116951732534E+00 -6.909904605600E+00 6.148405067988E-01 -3.343335570182E+00 -1.147927099461E+00 -2.756296567205E-01 1.944066808711E+01 3.933967110907E+00 -7.258321943662E-01 1.863933068392E+01 7.412935534749E+00 -2.070102978922E+00 -1.695641263764E+00 1.872972666074E+00 -7.195776256831E-01 5.763735210992E+00 -7.807486207964E-01 4.653162363450E-01 4.270077458036E+00 1.857973714759E+00 -7.115983423272E-01 -1.210080646813E+03 4.254370857311E+02 -7.870078530414E+01 -4.997495142429E+02 -1.658718144228E+01 -3.247707356876E+01 -6.246878659991E+00 -2.226724567681E+01 1.786816440959E+01 -2.703934731011E+00 3.155106721668E-01 -2.951290184451E+00 2.803900176079E+03
 8.219179063452E+00 4.449422439919E+00 -3.768063552344E-01 -3.763156513777E-01 8.396035329458E-01 2.245661171784E-01 3.397965896970E+00 -1.440377085663E+00 -1.403778442094E-01 6.848107148292E-01 3.025772694003E+00 -1.341839070701E-01 1.366303335941E+00 6.400830490670E-01 3.086442248093E-02 -8.388381013270E+00 -2.524816228825E+00 -1.679502039926E+00 -7.793652605062E+00 -3.429263565986E+00 5.997971793284E-01 7.424846223007E-01 -5.787458913320E-01 1.808312228620E-01 -1.783937275985E+00 -3.006052549576E-01 1.189907320417E-02 -1.572124861779E+00 -3.762832777461E-01 1.874274215391E-01 4.260363477328E+02 -7.327176713585E+02 2.510114553902E+01 -2.128826306109E+01 -1.539577778325E+03 5.155280314130E+00 7.140204852037E-03 1.762361491816E+01 -7.034038272551E+00 1.908905864964E+00 1.368472279701E+00 -8.136114068786E-01 2.910177338395E+01 2.889921399816E+03
 -5.490015611144E-01 -8.213343408078E-01 -1.598278846674E+00 -4.267227524146E-02 1.226100723253E-01 1.542657991691E+00 -1.156004603716E+00 5.989224706326E-01 1.468005113808E+00 -3.021297367161E-01 -6.194679390962E-01 -5.195430095546E-01 -3.636491658565E-01 7.776972403292E-02 -6.376322884362E-01 -5.631109392688E-01 -1.421628228750E+00 1.541949663721E+00 5.016364899769E-01 -2.496289780847E-01 -7.811976728290E-01 -3.452214787436E-01 6.559964993624E-01 -7.596010537974E-01 2.391409683166E-01 1.019927819592E-01 -2.162936637577E+00 4.177693899535E-01 1.829559383050E-01 1.360479756810E+00 -9.864446177715E+01 3.754769021181E+01 -9.138689770651E+01 -2.649739051062E+01 -3.473289389973E+00 -8.276819485563E+01 -1.206364577331E+00 2.865973884842E+00 -1.146245351468E+00 3.412128820561E+00 3.360638800940E+00 -1.323304823837E+00 2.355593176606E+02 2.742156410349E+01 2.158799866179E+02
 -2.770614318097E+01 -1.507621517025E+01 -1.581366702460E-01 -3.131313731376E+00 -4.669790562620E-01 -8.763213865365E-01 -9.918401747312E+00 2.469482517500E+00 6.191680809123E-01 -3.307414288100E+00 -8.071848501356E+00 2.369179421347E-01 -2.574896617106E+00 -1.396915663075E+00 -7.193785046675E-01 1.269108636232E+01 3.814305603832E+01 -2.531232701600E+00 1.911580924577E+01 9.047693368225E+00 -2.414712053386E+00 5.547827033542E-01 1.240558348776E+00 -1.094632607454E+00 4.083185734062E+00 2.350333121177E+00 7.405929236597E-02 4.633791955676E+00 5.119378715683E-01 -2.319519912752E-01 -1.189131075737E+03 -4.411736882221E+02 -5.163626743856E+01 8.249926044937E-01 -5.745360339505E+00 1.233616342870E+00 -1.188515889967E+03 3.686195436520E+02 -3.453810659898E+01 -4.653956066441E+02 -5.306034185414E+00 -1.573573651657E+01 -3.464521417070E+01 -2.711271449508E+01 1.369249243142E+00 2.723419529099E+03
 3.758886530065E-01 2.988745415524E+00 -7.469325917137E-01 -1.510069087576E+00 1.902194135685E+00 8.857178007087E-01 1.259063488024E+00 -1.046397279020E+00 -3.574197291919E-01 -8.348018307559E-01 1.857801112397E+00 5.188894178652E-01 9.864134415961E-01 7.661636711693E-01 -2.144160238553E-01 -3.259129472106E+01 5.640716136898E+01 -7.711802294452E+00 -3.669060238406E+00 -2.106540767147E+00 -6.616757862220E-01 1.629115047624E+00 -4.452053804278E-01 -1.847658898491E-01 5.363586245669E-01 -1.176234911189E+00 1.314530246319E+00 -9.783593133800E-02 5.179595154243E-01 -5.142026569238E-01 -4.324183903893E+02 -7.137866596235E+02 -1.106077992619E+01 2.158636050446E+00 2.031963953577E+00 3.154466969400E+00 4.133078769988E+02 -6.770230882191E+02 5.275391850372E+01 6.875004626484E+00 -1.489132587345E+03 5.917751732289E+01 3.311533987015E+01 5.751308234894E+01 -4.916507815930E+00 1.957515525664E+01 2.791525657201E+03
 -6.295352840029E+00 1.692101568377E+00 4.208475322409E+00 4.614773095355E+00 -3.740494377883E+00 -6.230114312753E+00 -2.173424688528E+00 2.132255065005E+00 9.302954609834E-01 9.738744297710E-01 -4.826853709430E-01 -7.474912314985E-01 2.872382538622E-03 2.883422210052E-01 1.202953858249E+00 3.027982273850E+00 -1.023437533936E+01 8.422846979834E+00 4.106854941331E+00 -1.120422636511E+00 2.767133235854E+00 -1.928781764215E+00 5.269353411067E-01 1.398389878347E+00 6.046787709448E-01 -1.785018196442E+00 -2.727718198160E+00 -7.867129031054E-01 -1.692309425912E-01 9.305788878790E-01 -3.501057564804E+01 -1.311897612930E+01 -8.716720984452E+01 -8.743870181133E-02 -1.495496364235E+00 -1.048756864473E+01 -3.577547839474E+01 6.625151676739E+01 -9.714584599783E+01 -1.735415117416E+01 5.651362078453E+01 -7.807084697049E+01 -4.837811744617E+00 -1.937569799942E+00 1.005208063868E+01 1.072219968203E+02 -1.088601834787E+02 2.092805711085E+02
 3.991313326498E+00 1.575217966067E+00 -2.570398913413E-01 -2.815771329857E+00 1.622297504136E+00 4.109993069916E-01 2.573148816148E+00 -2.119548010963E+00 -3.958580393247E-01 -8.356615620783E-02 2.544848613571E+00 -3.826339201187E-01 1.732572435678E+00 6.035035239083E-01 -2.229437099438E-01 -1.330275215637E+00 -3.982894604776E+00 1.942029585161E+00 -7.211590614252E+00 -2.913934657761E+00 7.294573877247E-01 2.177931168683E+00 -9.120926130438E-01 4.826917580185E-02 -2.131535982287E+00 6.408131250641E-01 -1.256612244247E-01 -1.298259507415E+00 -7.841499152533E-01 2.435868184777E-01 -2.060943115219E+00 -5.944209776795E-01 3.121999863298E+00 -1.494700992012E+03 -5.299462006574E+02 -4.652717752884E+01 1.438705291998E+00 1.487041463601E+01 -6.630890388062E+00 -1.278159363340E+03 4.332507556949E+02 -3.664255570027E+01 5.291483089513E+01 -2.981372554246E+00 -2.056474000507E+00 4.027170016996E+01 -3.341023910379E+00 1.439571554634E+00 3.064654926783E+03
 6.046612452345E-01 -1.289324021187E-01 -3.015317049562E-01 -1.375885578572E+00 6.087174965923E-01 9.701244659116E-01 7.847275137224E-01 -7.062506363073E-01 3.148403304513E-02 -1.526593668553E-01 7.092872689575E-01 -4.271965331576E-01 5.584393356990E-01 1.474522991372E-01 2.226782885946E-01 7.548213444624E-01 -1.546069280787E+00 8.152800927511E-01 -1.947041286108E+00 -8.590709211333E-01 1.109719414895E+00 1.094520278927E+00 -4.429074211306E-01 3.450119144589E-01 -7.618463098583E-01 2.127924365153E-01 -8.624940837609E-01 -4.142700104721E-01 -3.343931729160E-01 3.658792365896E-01 2.783986976558E-02 -9.495603463066E-01 3.330735975263E+00 -5.414662942803E+02 -8.747338941581E+02 -1.144895020284E+01 7.567819783117E-01 4.066622025278E+00 -7.747395047638E-01 4.176132298555E+02 -7.181291195024E+02 2.932560604345E+01 -8.468559931329E+01 1.516317134910E+00 -2.275530534470E+00 7.126352974581E+01 -1.551328374886E+00 3.125034832460E+00 9.415762540215E+01 2.540295161704E+03
 2.255301962377E-01 -3.141497561323E-01 2.066708582156E+00 -1.271614836639E+00 2.703631332136E-01 -1.052939004906E+00 3.174215475959E-01 -1.577684653346E+00 -2.271889286139E+00 -2.802653861168E-01 4.113559663963E-01 1.624199763276E+00 3.364422235462E-01 -9.295603564607E-02 -1.484627750411E+00 1.882183202236E+00 1.642021503734E+00 2.250359521721E+00 -1.768385756026E+00 8.732928667675E-01 -4.103777283186E+00 2.357109032698E-01 -1.956472926211E-01 -1.683778769237E+00 -3.310433502562E-01 1.534107767653E+00 5.784847504749E+00 2.371562016193E-01 -2.816645561717E-01 -2.414251517185E+00 -2.579716160981E+00 -2.400483698102E+00 -4.943186829048E+00 -4.251013502645E+01 -7.344398935441E+00 -6.855490350003E+01 1.518512052864E+00 -3.507524416221E+00 1.110684752504E+01 -3.881106180628E+01 3.105799967493E+01 -9.516800827658E+01 4.011986087226E+00 1.552537151116E+00 2.783315963520E+00 -2.329717566159E+00 2.330880945735E+00 4.611830484014E+00 9.321013417973E+01 -4.499148934203E+01 1.688149711263E+02
 -1.808638537512E+00 3.778814552975E-01 1.758267407914E+00 -1.225098145471E+03 4.482585352329E+02 3.146316595382E+00 -2.240043952073E-01 1.418321264985E-02 -1.299813603738E-01 -5.335964395432E-01 5.409241726235E-02 -4.166304628716E-02 2.628902197883E-02 1.832986798957E-01 -3.082681172830E-01 4.273849812575E+01 -2.326465680891E+00 -2.167350728081E+00 4.250548466666E-01 -5.075036433074E-01 5.161488444704E-01 -1.898268662999E+01 3.596080489963E+01 1.768185078315E-01 8.197196880143E-01 -7.489297463061E-01 -2.754651050169E-01 3.648247304351E-01 4.104953133875E-01 -3.954630989868E-02 3.404553666520E+00 -8.641827147387E-01 -1.157536510262E+00 1.043235015244E+00 3.624045981087E-01 5.348700319283E-01 -4.155237869548E+00 1.089908046919E+01 -1.643260535255E+00 -1.137786046226E+03 -3.861197060918E+02 2.762419152033E+00 -1.928122573106E+00 -4.498323167443E-01 -7.264586462901E-01 3.549133390748E+01 -4.102384459244E+00 2.019966211839E+00 -1.860640842765E+01 -3.283038749827E+01 9.136215142156E-01 2.725941003528E+03
 3.466777475894E+00 2.311144120706E+00 -4.081895988437E-01 4.548826250547E+02 -7.426612151369E+02 8.925701641398E+00 2.365525256215E+00 -1.796225932340E+00 -6.668943083743E-01 -3.074039895235E-01 2.425226496611E+00 -3.051197718309E-01 1.433841940702E+00 6.212792151296E-01 7.785877160333E-02 6.544481448081E+01 -4.878806821404E+00 3.136495377200E+00 -5.888880965502E+00 -2.642909744254E+00 -1.394658673809E-01 -3.111488368770E+01 5.875905226400E+01 -1.361371660204E+00 -1.249945567313E+00 -3.281013730366E-02 3.145758717340E-01 -9.530852486178E-01 -2.689975635079E-01 -1.842648219081E-01 -1.129740536021E+00 -6.401730568491E-01 1.518538649805E-01 1.599096381032E+00 2.503914068149E+00 -2.681455730018E-01 4.789779501598E-01 2.208683039107E+01 -1.276890284839E+01 -3.825422434420E+02 -6.674200871544E+02 8.384607931886E+00 2.479623444242E+00 -2.040786364396E+00 -7.872582777540E-01 -6.325405263156E+01 -4.508133788243E+00 3.610146399813E+00 2.795434021713E+01 5.658207986806E+01 -1.161907254791E+00 -1.001338172092E+01 2.819364305882E+03
 7.116018128555E-01 -7.565626877231E-01 4.867715082385E+00 6.171708225475E+00 9.640798016891E+00 -8.318570291837E+01 9.232752811382E-02 -5.357340816427E-01 -2.000140786665E-01 -6.408873701970E-01 6.347526229693E-01 4.811174576648E+00 -1.643337397487E-01 3.069414615404E-02 -5.548948627707E-02 -4.832823926379E+00 1.297548800868E+00 9.702978142857E+00 2.692336506959E-01 5.080107250026E-01 -5.333449466233E-02 1.470918812084E+00 -3.090711510699E+00 9.668663472774E+00 1.066061729284E-01 1.535767942422E-01 3.862374708462E-01 2.321161137312E-02 -4.016592939556E-01 -1.390254441896E-01 -1.354062011505E+00 -5.746402316506E-01 4.418717305237E+00 8.766817673639E-01 -1.240711945912E-01 5.929481186702E+00 1.081964699992E+00 -4.785985067076E-01 -1.043837086761E+01 1.220082423771E+00 1.405333227514E+01 -8.298743348321E+01 5.249245725464E-02 8.195059141687E-01 -1.145690558606E+00 3.918535492881E+00 9.761054668019E-02 8.055771305378E+00 -2.950538959667E+00 -3.163259466748E+00 1.108926360884E+01 -9.463862876506E+00 -4.503562169953E+01 1.876180213332E+02