#BIOSYM hessian 1
@Type: Hessian Update
@Units
 distance: 	A
 energy: 	Kcal/Mol
#header
@natom 67

#label
C1      C2      C3      C4      C5      C6      C7      C8      C9      C10     C11     C12     C13     C14     C15     C16     C17     C18     C19     C20     C21     C22     C23     H24     C25     C26     C27     C28     C29     C30     C31     C32     C33     C34     C35     C36     C37     C38     C39     C40     C41     C42     C43     C44     C45     C46     C47     C48     C49     H50     H51     H52     H53     H54     H55     H56     H57     H58     H59     H60     O61     H62     H63     H64     H65     H66     H67

#element
C  C  C  C  C  C  C  C  C  C  C  C  C  C  C  C  C  C  C  C  C  C  C  H  C  C  C  C  C  C  C  C  C  C  C  C  C  C  C  C  C  C  C  C  C  C  C  C  C  H  H  H  H  H  H  H  H  H  H  H  O  H  H  H  H  H  H 

#matrix
201
 2.784696831468E+03
 -3.478259309779E+01 2.811209258955E+03
 0.000000000000E+00 0.000000000000E+00 0.000000000000E+00
 4.342237053251E+01 6.416265432569E+01 0.000000000000E+00 2.754484575641E+03
 -2.856411056026E+00 8.586698676999E-01 0.000000000000E+00 2.485095696608E+01 2.643271561884E+03
 0.000000000000E+00 0.000000000000E+00 0.000000000000E+00 0.000000000000E+00 0.000000000000E+00 0.000000000000E+00
 -1.921820309973E+01 3.419079645349E+01 0.000000000000E+00 -3.773654554599E+00 5.401093394282E+00 0.000000000000E+00 2.816310768537E+03
 -3.341012372703E+01 6.045436708820E+01 0.000000000000E+00 -1.895633502390E+00 2.088426561391E+00 0.000000000000E+00 -3.612077060601E+01 2.815968463520E+03
 0.000000000000E+00 0.000000000000E+00 0.000000000000E+00 0.000000000000E+00 0.000000000000E+00 0.000000000000E+00 0.000000000000E+00 0.000000000000E+00 0.000000000000E+00
 3.802223714735E+01 -6.912658639889E+01 0.000000000000E+00 -2.590327095452E+01 4.517587657246E+01 0.000000000000E+00 4.241138033561E+01 7.125844761495E+01 0.000000000000E+00 2.791865675376E+03
 -4.085611840390E-02 9.965955193809E-01 0.000000000000E+00 -2.772008580334E+01 5.310235134521E+01 0.000000000000E+00 -4.890405584806E-01 -1.211608395771E+00 0.000000000000E+00 -2.018942300504E+01 2.829945564614E+03
 0.000000000000E+00 0.000000000000E+00 0.000000000000E+00 0.000000000000E+00 0.000000000000E+00 0.000000000000E+00 0.000000000000E+00 0.000000000000E+00 0.000000000000E+00 0.000000000000E+00 0.000000000000E+00 0.000000000000E+00
 -2.652430247384E-01 4.275805722849E-01 0.000000000000E+00 2.968068429592E+00 -4.675824860764E+00 0.000000000000E+00 4.154473258911E+01 -7.343354950346E+01 0.000000000000E+00 -2.130497211700E+01 3.829475411974E+01 0.000000000000E+00 2.634360354273E+03
 3.343931860003E-01 -7.807079426239E-02 0.000000000000E+00 -8.156317337666E-01 1.850907500572E+00 0.000000000000E+00 1.299016603265E-01 -7.039700039243E-01 0.000000000000E+00 -3.498379078828E+01 6.345454625456E+01 0.000000000000E+00 -2.193002737876E+02 2.904269564747E+03
 0.000000000000E+00 0.000000000000E+00 0.000000000000E+00 0.000000000000E+00 0.000000000000E+00 0.000000000000E+00 0.000000000000E+00 0.000000000000E+00 0.000000000000E+00 0.000000000000E+00 0.000000000000E+00 0.000000000000E+00 0.000000000000E+00 0.000000000000E+00 0.000000000000E+00
 -1.222021795805E+03 4.524338236938E+02 0.000000000000E+00 -4.754325473660E+02 1.297557902484E+01 0.000000000000E+00 -1.356087505977E+00 -1.127298613575E+00 0.000000000000E+00 -2.761661708165E+00 2.089603471447E+00 0.000000000000E+00 1.109261262939E+00 -1.370349344994E+00 0.000000000000E+00 2.801811278932E+03
 4.460518996247E+02 -7.440065245373E+02 0.000000000000E+00 -2.549550312575E+01 -1.410663362540E+03 0.000000000000E+00 -1.584308950603E+00 6.876116067908E-01 0.000000000000E+00 -1.463173145879E+00 1.699567454589E+00 0.000000000000E+00 1.267994926680E+00 1.086370516952E+00 0.000000000000E+00 -6.234880406341E+00 2.776344520477E+03
 0.000000000000E+00 0.000000000000E+00 0.000000000000E+00 0.000000000000E+00 0.000000000000E+00 0.000000000000E+00 0.000000000000E+00 0.000000000000E+00 0.000000000000E+00 0.000000000000E+00 0.000000000000E+00 0.000000000000E+00 0.000000000000E+00 0.000000000000E+00 0.000000000000E+00 0.000000000000E+00 0.000000000000E+00 0.000000000000E+00
 -1.203081782632E+03 -4.059907475647E+02 0.000000000000E+00 1.525104914379E-01 1.530234109295E-01 0.000000000000E+00 -1.258424174397E+03 4.511405738303E+02 0.000000000000E+00 -4.874510255086E+02 -1.907286562745E+01 0.000000000000E+00 3.119740978510E-02 -2.536332453848E-01 0.000000000000E+00 -1.915425819089E+01 -3.214720123185E+01 0.000000000000E+00 2.829310005615E+03
 -4.055368781313E+02 -6.910921552001E+02 0.000000000000E+00 3.111436152137E-01 3.239768953471E+00 0.000000000000E+00 4.534015555255E+02 -7.528072704924E+02 0.000000000000E+00 -2.084742171713E+01 -1.511969895628E+03 0.000000000000E+00 -2.232948807393E-01 1.161832972674E-01 0.000000000000E+00 3.410112557612E+01 5.748082459759E+01 0.000000000000E+00 -2.992779281241E+01 2.838081524069E+03
 0.000000000000E+00 0.000000000000E+00 0.000000000000E+00 0.000000000000E+00 0.000000000000E+00 0.000000000000E+00 0.000000000000E+00 0.000000000000E+00 0.000000000000E+00 0.000000000000E+00 0.000000000000E+00 0.000000000000E+00 0.000000000000E+00 0.000000000000E+00 0.000000000000E+00 0.000000000000E+00 0.000000000000E+00 0.000000000000E+00 0.000000000000E+00 0.000000000000E+00 0.000000000000E+00
 -2.719356845926E+00 6.632564053411E-01 0.000000000000E+00 -1.231077747172E+03 -4.238232820445E+02 0.000000000000E+00 1.523063977493E+00 6.035300193465E-01 0.000000000000E+00 -1.216568902677E+03 4.427017734602E+02 0.000000000000E+00 -1.001936704635E+00 3.141663632454E-01 0.000000000000E+00 4.027901205359E+01 2.470860457075E+00 0.000000000000E+00 4.275571612559E+01 -1.882791566282E+00 0.000000000000E+00 2.821237382840E+03
 2.536214060415E-01 1.135114893521E+00 0.000000000000E+00 -4.117222978802E+02 -6.779532459871E+02 0.000000000000E+00 2.256774834699E-01 3.816049864843E-02 0.000000000000E+00 4.435673540554E+02 -7.447835678965E+02 0.000000000000E+00 3.572661806598E-01 -9.079648269055E-01 0.000000000000E+00 -6.745408557990E+01 -4.877367968629E-01 0.000000000000E+00 6.899658470285E+01 -2.488332224205E+00 0.000000000000E+00 7.898571036595E+00 2.790462661205E+03
 0.000000000000E+00 0.000000000000E+00 0.000000000000E+00 0.000000000000E+00 0.000000000000E+00 0.000000000000E+00 0.000000000000E+00 0.000000000000E+00 0.000000000000E+00 0.000000000000E+00 0.000000000000E+00 0.000000000000E+00 0.000000000000E+00 0.000000000000E+00 0.000000000000E+00 0.000000000000E+00 0.000000000000E+00 0.000000000000E+00 0.000000000000E+00 0.000000000000E+00 0.000000000000E+00 0.000000000000E+00 0.000000000000E+00 0.000000000000E+00
 -2.914376108341E-01 -1.042375520964E-01 0.000000000000E+00 -1.368539341545E+00 2.023388692461E+00 0.000000000000E+00 -1.203521361110E+03 -4.028728415310E+02 0.000000000000E+00 -1.270711831357E-01 4.923595860414E-01 0.000000000000E+00 -5.223737665952E+02 1.238555840519E+00 0.000000000000E+00 -2.284944632116E-01 -6.913173317339E-01 0.000000000000E+00 -1.961192448421E+01 -3.332384577514E+01 0.000000000000E+00 2.395245139733E-01 -4.552282320215E-01 0.000000000000E+00 2.779184120480E+03
 -2.099005210191E-01 -3.726824332454E-01 0.000000000000E+00 1.645967808994E+00 -2.903194292062E+00 0.000000000000E+00 -4.112160651258E+02 -6.971232390135E+02 0.000000000000E+00 9.176033001673E-01 -1.072930849717E-01 0.000000000000E+00 2.610686274283E+00 -1.635498683730E+03 0.000000000000E+00 1.561392296220E+00 -8.506644268290E-01 0.000000000000E+00 3.499256590313E+01 6.029451855818E+01 0.000000000000E+00 -2.295120337377E-01 5.892700392725E-01 0.000000000000E+00 -2.948483458838E+01 2.954574499308E+03
 0.000000000000E+00 0.000000000000E+00 0.000000000000E+00 0.000000000000E+00 0.000000000000E+00 0.000000000000E+00 0.000000000000E+00 0.000000000000E+00 0.000000000000E+00 0.000000000000E+00 0.000000000000E+00 0.000000000000E+00 0.000000000000E+00 0.000000000000E+00 0.000000000000E+00 0.000000000000E+00 0.000000000000E+00 0.000000000000E+00 0.000000000000E+00 0.000000000000E+00 0.000000000000E+00 0.000000000000E+00 0.000000000000E+00 0.000000000000E+00 0.000000000000E+00 0.000000000000E+00 0.000000000000E+00
 3.111536001189E-01 -3.433242350644E-01 0.000000000000E+00 -1.870760694988E+00 2.618968532211E+00 0.000000000000E+00 -8.421770273652E-01 1.099235886187E-01 0.000000000000E+00 -1.204382084871E+03 -4.119975680447E+02 0.000000000000E+00 -1.330274960599E+03 4.968659581653E+02 0.000000000000E+00 -4.780777840908E-01 -1.130437567760E+00 0.000000000000E+00 3.822069159419E+01 -2.125170296059E-01 0.000000000000E+00 -1.878727991716E+01 -3.068654307056E+01 0.000000000000E+00 5.005986369177E+01 -2.622912561411E-01 0.000000000000E+00 2.885503969893E+03
 -3.770337614317E-01 2.999897590796E-01 0.000000000000E+00 1.574931093439E+00 -2.365326282384E+00 0.000000000000E+00 8.581045661417E-03 8.514932913739E-01 0.000000000000E+00 -4.031591087444E+02 -6.948990741064E+02 0.000000000000E+00 4.958780449546E+02 -8.279392260421E+02 0.000000000000E+00 1.230949109229E+00 -8.213414176133E-01 0.000000000000E+00 -6.860880884009E+01 5.784435684390E-01 0.000000000000E+00 3.565888625078E+01 5.962722247424E+01 0.000000000000E+00 8.100840937866E+01 -8.031197009431E-01 0.000000000000E+00 -8.477206458809E+01 2.842602239703E+03
 0.000000000000E+00 0.000000000000E+00 0.000000000000E+00 0.000000000000E+00 0.000000000000E+00 0.000000000000E+00 0.000000000000E+00 0.000000000000E+00 0.000000000000E+00 0.000000000000E+00 0.000000000000E+00 0.000000000000E+00 0.000000000000E+00 0.000000000000E+00 0.000000000000E+00 0.000000000000E+00 0.000000000000E+00 0.000000000000E+00 0.000000000000E+00 0.000000000000E+00 0.000000000000E+00 0.000000000000E+00 0.000000000000E+00 0.000000000000E+00 0.000000000000E+00 0.000000000000E+00 0.000000000000E+00 0.000000000000E+00 0.000000000000E+00 0.000000000000E+00
 1.590330251547E+00 -2.808128410873E-01 0.000000000000E+00 -3.315570667203E+00 5.904117819131E+00 0.000000000000E+00 -3.988583680687E-01 -1.079370218814E+00 0.000000000000E+00 -7.511143721855E-01 7.497209170230E-01 0.000000000000E+00 3.416761101334E-01 -1.608700045430E+00 0.000000000000E+00 -3.958360412247E+00 2.758942422489E+00 0.000000000000E+00 -6.992616044758E-01 1.132738226253E-01 0.000000000000E+00 1.603709809955E+00 -1.625963318380E+00 0.000000000000E+00 1.015341938449E-01 1.539949408563E+00 0.000000000000E+00 3.307245832033E-01 1.259155385361E+00 0.000000000000E+00 2.812542993300E+03
 4.968126868380E-01 -6.112561129438E-02 0.000000000000E+00 -1.974402237019E+00 3.022144619799E+00 0.000000000000E+00 -1.542009455752E-01 -2.983371828427E-01 0.000000000000E+00 -3.331219954184E-01 3.807811883346E-01 0.000000000000E+00 1.668955380188E-01 -4.724447971575E-01 0.000000000000E+00 -1.503637605871E+00 1.004828429973E+00 0.000000000000E+00 -2.523478517911E-01 -1.266978357597E-01 0.000000000000E+00 7.374376993619E-01 -5.302728062887E-01 0.000000000000E+00 1.564504292019E-02 4.266794521328E-01 0.000000000000E+00 1.675234200598E-01 4.292708135752E-01 0.000000000000E+00 1.894702530890E+01 2.787856974762E+03
 0.000000000000E+00 0.000000000000E+00 0.000000000000E+00 0.000000000000E+00 0.000000000000E+00 0.000000000000E+00 0.000000000000E+00 0.000000000000E+00 0.000000000000E+00 0.000000000000E+00 0.000000000000E+00 0.000000000000E+00 0.000000000000E+00 0.000000000000E+00 0.000000000000E+00 0.000000000000E+00 0.000000000000E+00 0.000000000000E+00 0.000000000000E+00 0.000000000000E+00 0.000000000000E+00 0.000000000000E+00 0.000000000000E+00 0.000000000000E+00 0.000000000000E+00 0.000000000000E+00 0.000000000000E+00 0.000000000000E+00 0.000000000000E+00 0.000000000000E+00 0.000000000000E+00 0.000000000000E+00 0.000000000000E+00
 -7.173303298857E-01 2.694492951738E-01 0.000000000000E+00 6.295575927877E+00 -1.121254781224E+01 0.000000000000E+00 6.692972484949E-01 6.011691242321E-01 0.000000000000E+00 9.803705896707E-01 -1.103016865948E+00 0.000000000000E+00 -6.645911992766E-01 7.328654754457E-01 0.000000000000E+00 3.882773275299E+00 5.755196140366E-01 0.000000000000E+00 1.998366507926E-01 3.879337794643E-01 0.000000000000E+00 -1.814016553741E+00 1.106272193585E+00 0.000000000000E+00 2.025054358794E-01 -7.897833107575E-01 0.000000000000E+00 2.681435394273E-01 -6.811071459715E-01 0.000000000000E+00 4.158666603862E+01 7.289832587270E+01 0.000000000000E+00 2.773983625078E+03
 -1.134247389265E+00 7.839883288309E-01 0.000000000000E+00 2.026570307252E+01 -3.096623686598E+01 0.000000000000E+00 2.030863528599E+00 1.156775737316E+00 0.000000000000E+00 2.829739992759E+00 -3.009422962629E+00 0.000000000000E+00 -1.908230080699E+00 1.827981194609E+00 0.000000000000E+00 9.462919881631E+00 4.071393819625E+00 0.000000000000E+00 1.082691034236E-01 9.277423092579E-01 0.000000000000E+00 -4.679374676414E+00 2.342786030202E+00 0.000000000000E+00 5.229410323843E-01 -2.084094111286E+00 0.000000000000E+00 1.068282226036E+00 -1.499542321743E+00 0.000000000000E+00 3.582133535174E+00 6.259545126458E-01 0.000000000000E+00 2.691722881451E+02 2.862273671148E+03
 0.000000000000E+00 0.000000000000E+00 0.000000000000E+00 0.000000000000E+00 0.000000000000E+00 0.000000000000E+00 0.000000000000E+00 0.000000000000E+00 0.000000000000E+00 0.000000000000E+00 0.000000000000E+00 0.000000000000E+00 0.000000000000E+00 0.000000000000E+00 0.000000000000E+00 0.000000000000E+00 0.000000000000E+00 0.000000000000E+00 0.000000000000E+00 0.000000000000E+00 0.000000000000E+00 0.000000000000E+00 0.000000000000E+00 0.000000000000E+00 0.000000000000E+00 0.000000000000E+00 0.000000000000E+00 0.000000000000E+00 0.000000000000E+00 0.000000000000E+00 0.000000000000E+00 0.000000000000E+00 0.000000000000E+00 0.000000000000E+00 0.000000000000E+00 0.000000000000E+00
 -1.965233066715E+01 -3.456170502932E+01 0.000000000000E+00 4.152866182832E+01 -5.297702481779E+00 0.000000000000E+00 4.439973523881E-01 -2.072438879724E-01 0.000000000000E+00 5.559929124274E-01 -6.689641187317E-01 0.000000000000E+00 -2.815439997255E-01 -4.163447479582E-01 0.000000000000E+00 -1.243523950249E+03 -4.330391326549E+02 0.000000000000E+00 -3.202761509040E-01 1.961963706472E-01 0.000000000000E+00 -1.535403460566E-01 -1.498383739393E-01 0.000000000000E+00 1.271709644573E-01 3.069869972943E-01 0.000000000000E+00 3.689030686547E-01 4.675713623035E-01 0.000000000000E+00 -2.036502630190E+01 3.362432529804E+01 0.000000000000E+00 9.520086286315E-02 -8.921001108922E-01 0.000000000000E+00 2.770867336835E+03
 3.586279287697E+01 6.018289530937E+01 0.000000000000E+00 -6.591880861850E+01 -2.157928902998E+00 0.000000000000E+00 4.428577236879E-02 -9.058282644180E-02 0.000000000000E+00 2.633285681138E-01 1.249815761827E-02 0.000000000000E+00 -7.401955320300E-03 -5.086951971918E-01 0.000000000000E+00 -4.403741615694E+02 -7.208307625872E+02 0.000000000000E+00 -1.961151678205E-01 -2.486135897972E-01 0.000000000000E+00 -5.320079217130E-01 -7.731609799823E-02 0.000000000000E+00 1.585095692775E-01 3.462234131674E-01 0.000000000000E+00 2.368187154272E-01 4.069787681923E-01 0.000000000000E+00 -3.362840054423E+01 5.576444653505E+01 0.000000000000E+00 3.463284997505E-01 7.330225878318E-02 0.000000000000E+00 1.558291417027E+01 2.802916430087E+03
 0.000000000000E+00 0.000000000000E+00 0.000000000000E+00 0.000000000000E+00 0.000000000000E+00 0.000000000000E+00 0.000000000000E+00 0.000000000000E+00 0.000000000000E+00 0.000000000000E+00 0.000000000000E+00 0.000000000000E+00 0.000000000000E+00 0.000000000000E+00 0.000000000000E+00 0.000000000000E+00 0.000000000000E+00 0.000000000000E+00 0.000000000000E+00 0.000000000000E+00 0.000000000000E+00 0.000000000000E+00 0.000000000000E+00 0.000000000000E+00 0.000000000000E+00 0.000000000000E+00 0.000000000000E+00 0.000000000000E+00 0.000000000000E+00 0.000000000000E+00 0.000000000000E+00 0.000000000000E+00 0.000000000000E+00 0.000000000000E+00 0.000000000000E+00 0.000000000000E+00 0.000000000000E+00 0.000000000000E+00 0.000000000000E+00
 4.950495825793E-02 7.066509889063E-01 0.000000000000E+00 -1.601543343504E+01 -3.556799472202E+01 0.000000000000E+00 -1.038218727106E-01 3.382490436557E-01 0.000000000000E+00 6.877730206987E-01 2.155362967354E-01 0.000000000000E+00 2.845524138521E-01 -4.247767603696E-01 0.000000000000E+00 -6.447656957199E-01 1.646397441980E+00 0.000000000000E+00 -7.339416726729E-01 -3.517730214656E-01 0.000000000000E+00 -1.346762018620E+00 -5.265840408067E-01 0.000000000000E+00 6.533017749667E-02 7.338539497018E-02 0.000000000000E+00 -2.116064837474E-01 2.190693219779E-01 0.000000000000E+00 4.295407179158E+01 -6.682266504673E+01 0.000000000000E+00 -2.296399343725E+01 3.800041648392E+01 0.000000000000E+00 3.834399303362E+01 6.648939812952E+01 0.000000000000E+00 2.801017899789E+03
 6.744770353543E-01 -4.914033761786E-01 0.000000000000E+00 2.676229911488E+01 6.554319801498E+01 0.000000000000E+00 -7.759126507436E-01 -8.601265750647E-01 0.000000000000E+00 -9.545366677095E-01 1.359515188713E+00 0.000000000000E+00 7.473536087892E-01 -1.319603120650E+00 0.000000000000E+00 -3.815754956997E+00 6.225299650281E-02 0.000000000000E+00 -3.062349986759E-01 -2.540205580856E-01 0.000000000000E+00 1.387391978947E+00 -2.123134458662E+00 0.000000000000E+00 -1.105112777438E-01 1.433413336340E+00 0.000000000000E+00 -1.400611251120E-01 1.064451640383E+00 0.000000000000E+00 -1.891507455130E+00 -3.174682798188E+00 0.000000000000E+00 -3.865214007088E+01 8.377146542202E+01 0.000000000000E+00 -1.041522014581E+00 -9.673595691158E-01 0.000000000000E+00 -8.984846871192E+00 2.704658527526E+03
 0.000000000000E+00 0.000000000000E+00 0.000000000000E+00 0.000000000000E+00 0.000000000000E+00 0.000000000000E+00 0.000000000000E+00 0.000000000000E+00 0.000000000000E+00 0.000000000000E+00 0.000000000000E+00 0.000000000000E+00 0.000000000000E+00 0.000000000000E+00 0.000000000000E+00 0.000000000000E+00 0.000000000000E+00 0.000000000000E+00 0.000000000000E+00 0.000000000000E+00 0.000000000000E+00 0.000000000000E+00 0.000000000000E+00 0.000000000000E+00 0.000000000000E+00 0.000000000000E+00 0.000000000000E+00 0.000000000000E+00 0.000000000000E+00 0.000000000000E+00 0.000000000000E+00 0.000000000000E+00 0.000000000000E+00 0.000000000000E+00 0.000000000000E+00 0.000000000000E+00 0.000000000000E+00 0.000000000000E+00 0.000000000000E+00 0.000000000000E+00 0.000000000000E+00 0.000000000000E+00
 -3.891328572708E-01 1.559474269062E-01 0.000000000000E+00 2.421722427400E+00 -3.799340768599E+00 0.000000000000E+00 2.130146600287E-01 2.573088599863E-01 0.000000000000E+00 2.520609929235E-01 -2.160931459523E-01 0.000000000000E+00 -2.875644131933E-01 4.596147512632E-01 0.000000000000E+00 1.442040344548E+00 8.260107580729E-01 0.000000000000E+00 -3.826721559423E-02 5.366538134313E-02 0.000000000000E+00 -7.050686789674E-01 1.905362528981E-01 0.000000000000E+00 8.972746454540E-02 -5.280946622837E-01 0.000000000000E+00 2.610919336687E-01 -4.266271370444E-01 0.000000000000E+00 -1.254953615087E+03 4.210271898123E+02 0.000000000000E+00 -5.146910637935E+02 -3.119549075370E+00 0.000000000000E+00 -4.479478484702E-01 3.852605490141E-02 0.000000000000E+00 -8.682290707727E-01 -1.711938190358E+00 0.000000000000E+00 2.866977220246E+03
 1.112759329644E+00 -1.033733345363E+00 0.000000000000E+00 -1.741675644290E+01 2.757314511430E+01 0.000000000000E+00 -1.587197587926E+00 -1.180621554576E+00 0.000000000000E+00 -2.781525064990E+00 2.318008667482E+00 0.000000000000E+00 1.381354532560E+00 -1.194162383062E+00 0.000000000000E+00 -7.838216252645E+00 -4.217151606137E+00 0.000000000000E+00 2.312950831335E-01 -5.213028234914E-01 0.000000000000E+00 4.419255528887E+00 -1.799993333468E+00 0.000000000000E+00 -4.510288626084E-01 1.558153140126E+00 0.000000000000E+00 -8.705328306449E-01 1.084721805070E+00 0.000000000000E+00 4.187313695803E+02 -7.103924611369E+02 0.000000000000E+00 -6.108923849304E+00 -1.530142306182E+03 0.000000000000E+00 1.086391861703E+00 -4.943555577624E-01 0.000000000000E+00 -3.218418748439E+00 -2.545311198953E+00 0.000000000000E+00 3.045664729185E+01 2.867086856240E+03
 0.000000000000E+00 0.000000000000E+00 0.000000000000E+00 0.000000000000E+00 0.000000000000E+00 0.000000000000E+00 0.000000000000E+00 0.000000000000E+00 0.000000000000E+00 0.000000000000E+00 0.000000000000E+00 0.000000000000E+00 0.000000000000E+00 0.000000000000E+00 0.000000000000E+00 0.000000000000E+00 0.000000000000E+00 0.000000000000E+00 0.000000000000E+00 0.000000000000E+00 0.000000000000E+00 0.000000000000E+00 0.000000000000E+00 0.000000000000E+00 0.000000000000E+00 0.000000000000E+00 0.000000000000E+00 0.000000000000E+00 0.000000000000E+00 0.000000000000E+00 0.000000000000E+00 0.000000000000E+00 0.000000000000E+00 0.000000000000E+00 0.000000000000E+00 0.000000000000E+00 0.000000000000E+00 0.000000000000E+00 0.000000000000E+00 0.000000000000E+00 0.000000000000E+00 0.000000000000E+00 0.000000000000E+00 0.000000000000E+00 0.000000000000E+00
 -6.144114743292E-01 2.304652318838E-01 0.000000000000E+00 8.616675010083E+00 -1.335413329355E+01 0.000000000000E+00 9.433900029326E-01 5.348678964824E-01 0.000000000000E+00 1.245528699916E+00 -1.355136359125E+00 0.000000000000E+00 -8.722889460708E-01 1.017631376753E+00 0.000000000000E+00 -1.475342367362E+01 3.647732181397E+01 0.000000000000E+00 2.463704571082E-01 3.838519101337E-01 0.000000000000E+00 -1.983197608231E+00 1.361429501426E+00 0.000000000000E+00 1.897127086818E-01 -1.090428501167E+00 0.000000000000E+00 4.002448829550E-01 -8.266262829832E-01 0.000000000000E+00 -1.205573764623E+03 -4.350959141625E+02 0.000000000000E+00 -2.391362728834E+00 -6.349154549100E+00 0.000000000000E+00 -1.173185061062E+03 4.248530676562E+02 0.000000000000E+00 -4.608587663817E+02 -2.217402429423E-01 0.000000000000E+00 -2.013337045780E+01 -2.923550198735E+01 0.000000000000E+00 2.726487469303E+03
 -1.417740388122E+00 1.148665895164E+00 0.000000000000E+00 1.552851509780E+01 -2.440708366238E+01 0.000000000000E+00 1.265460369657E+00 1.330148986212E+00 0.000000000000E+00 2.309004424979E+00 -1.967026595138E+00 0.000000000000E+00 -1.208798028302E+00 1.542763606481E+00 0.000000000000E+00 -2.615378992436E+01 5.970231733334E+01 0.000000000000E+00 -1.256996619211E-01 5.134878089204E-01 0.000000000000E+00 -4.257746962462E+00 1.818543331664E+00 0.000000000000E+00 3.436810917625E-01 -1.862069566559E+00 0.000000000000E+00 5.259076459164E-01 -1.485337639242E+00 0.000000000000E+00 -4.335385223965E+02 -7.225072299767E+02 0.000000000000E+00 -5.070685715658E+00 -1.144742424598E+01 0.000000000000E+00 4.251612684147E+02 -7.112941013686E+02 0.000000000000E+00 7.245184399958E+00 -1.490655375627E+03 0.000000000000E+00 3.180652448165E+01 6.785007854869E+01 0.000000000000E+00 2.775589139837E+00 2.806856383169E+03
 0.000000000000E+00 0.000000000000E+00 0.000000000000E+00 0.000000000000E+00 0.000000000000E+00 0.000000000000E+00 0.000000000000E+00 0.000000000000E+00 0.000000000000E+00 0.000000000000E+00 0.000000000000E+00 0.000000000000E+00 0.000000000000E+00 0.000000000000E+00 0.000000000000E+00 0.000000000000E+00 0.000000000000E+00 0.000000000000E+00 0.000000000000E+00 0.000000000000E+00 0.000000000000E+00 0.000000000000E+00 0.000000000000E+00 0.000000000000E+00 0.000000000000E+00 0.000000000000E+00 0.000000000000E+00 0.000000000000E+00 0.000000000000E+00 0.000000000000E+00 0.000000000000E+00 0.000000000000E+00 0.000000000000E+00 0.000000000000E+00 0.000000000000E+00 0.000000000000E+00 0.000000000000E+00 0.000000000000E+00 0.000000000000E+00 0.000000000000E+00 0.000000000000E+00 0.000000000000E+00 0.000000000000E+00 0.000000000000E+00 0.000000000000E+00 0.000000000000E+00 0.000000000000E+00 0.000000000000E+00
 2.799037497942E+00 -2.092382760192E+00 0.000000000000E+00 -1.642550688994E+01 2.945410985110E+01 0.000000000000E+00 -9.455234239775E-01 -2.461146881245E+00 0.000000000000E+00 -2.631347988965E+00 6.786815779298E-01 0.000000000000E+00 1.105662735432E+00 -1.861487410616E+00 0.000000000000E+00 -8.837271645075E+00 -5.947993825938E+00 0.000000000000E+00 1.027346549539E+00 1.152558417316E-01 0.000000000000E+00 6.901331808136E+00 -1.171355987103E-01 0.000000000000E+00 -6.776326962806E-01 2.677680048840E+00 0.000000000000E+00 -1.100017860015E+00 2.369012801678E+00 0.000000000000E+00 -9.449960013734E+00 -2.826178545657E+00 0.000000000000E+00 -1.481933239845E+03 -5.222222465268E+02 0.000000000000E+00 1.843738416746E+00 -2.102889978422E+00 0.000000000000E+00 -1.323079396094E+03 3.964690404448E+02 0.000000000000E+00 5.388104613036E+01 -8.040289102625E+00 0.000000000000E+00 4.363973303007E+01 8.621158088216E+00 0.000000000000E+00 3.114537891635E+03
 1.078102840159E+00 -3.456322831398E-01 0.000000000000E+00 -1.296522374408E+01 1.736556150601E+01 0.000000000000E+00 -9.302352673388E-01 -5.941571794700E-01 0.000000000000E+00 -1.695765651230E+00 9.742654227310E-01 0.000000000000E+00 9.716159846912E-01 -1.070138230918E+00 0.000000000000E+00 -5.388885150089E+00 -4.746528241904E+00 0.000000000000E+00 4.100786129878E-01 -5.578178300908E-01 0.000000000000E+00 4.063460256051E+00 3.256249187687E-02 0.000000000000E+00 -3.093408483787E-01 1.253233036793E+00 0.000000000000E+00 -7.426427489473E-01 1.163822603262E+00 0.000000000000E+00 -3.712880582193E+00 6.887730029524E-01 0.000000000000E+00 -5.532404208208E+02 -8.691236840371E+02 0.000000000000E+00 1.573397811088E+00 7.092194251551E-01 0.000000000000E+00 3.845123173526E+02 -6.935911686512E+02 0.000000000000E+00 -8.272634056274E+01 -8.116161964119E+00 0.000000000000E+00 7.452934846690E+01 5.580621429790E+00 0.000000000000E+00 2.621834015764E+01 2.489770814074E+03
 0.000000000000E+00 0.000000000000E+00 0.000000000000E+00 0.000000000000E+00 0.000000000000E+00 0.000000000000E+00 0.000000000000E+00 0.000000000000E+00 0.000000000000E+00 0.000000000000E+00 0.000000000000E+00 0.000000000000E+00 0.000000000000E+00 0.000000000000E+00 0.000000000000E+00 0.000000000000E+00 0.000000000000E+00 0.000000000000E+00 0.000000000000E+00 0.000000000000E+00 0.000000000000E+00 0.000000000000E+00 0.000000000000E+00 0.000000000000E+00 0.000000000000E+00 0.000000000000E+00 0.000000000000E+00 0.000000000000E+00 0.000000000000E+00 0.000000000000E+00 0.000000000000E+00 0.000000000000E+00 0.000000000000E+00 0.000000000000E+00 0.000000000000E+00 0.000000000000E+00 0.000000000000E+00 0.000000000000E+00 0.000000000000E+00 0.000000000000E+00 0.000000000000E+00 0.000000000000E+00 0.000000000000E+00 0.000000000000E+00 0.000000000000E+00 0.000000000000E+00 0.000000000000E+00 0.000000000000E+00 0.000000000000E+00 0.000000000000E+00 0.000000000000E+00
 -9.330403116587E+00 3.134233015944E+00 0.000000000000E+00 -1.152371789656E+03 3.601392451535E+02 0.000000000000E+00 5.078959721794E+00 7.332664600896E+00 0.000000000000E+00 9.715540179864E+00 -7.975986166861E+00 0.000000000000E+00 -4.737024870264E+00 9.778892541406E+00 0.000000000000E+00 7.695170290698E+01 2.218719884256E+00 0.000000000000E+00 2.138110279649E+00 1.223426256108E+00 0.000000000000E+00 -3.874741801253E+01 4.710928306925E+01 0.000000000000E+00 9.212109876016E-01 -1.036591400525E+01 0.000000000000E+00 8.539124732321E-01 -8.728468736759E+00 0.000000000000E+00 2.521317080224E+01 8.501954390412E+00 0.000000000000E+00 -1.824272099493E+01 -4.632419931603E+01 0.000000000000E+00 1.175406231108E+00 4.367322501566E+00 0.000000000000E+00 -1.127540382368E+03 -3.711709705446E+02 0.000000000000E+00 -8.228632428832E+00 3.685363308073E+01 0.000000000000E+00 1.380878787283E+01 -3.691779753772E+01 0.000000000000E+00 2.624196596914E+01 -6.203031991203E+00 0.000000000000E+00 2.629431459525E+03
 1.425338942581E+01 -4.561397714812E+00 0.000000000000E+00 3.961840015937E+02 -6.373518183131E+02 0.000000000000E+00 -4.885558571601E+00 -1.018766307100E+01 0.000000000000E+00 -1.340369667636E+01 7.010493271890E+00 0.000000000000E+00 3.717961907949E+00 -1.259426442939E+01 0.000000000000E+00 2.347095714968E+01 1.823609064380E+00 0.000000000000E+00 -2.540558700904E+00 9.134197648908E-01 0.000000000000E+00 -2.856331836067E+00 5.189192388459E+01 0.000000000000E+00 1.295117683892E-01 1.334126111053E+01 0.000000000000E+00 1.590543164335E+00 1.106479312610E+01 0.000000000000E+00 -3.376938049636E+01 -1.247137667173E+01 0.000000000000E+00 2.287579132961E+01 4.958045334090E+01 0.000000000000E+00 -3.295246340106E+00 -6.469694421011E+00 0.000000000000E+00 -3.949807021918E+02 -6.978916408876E+02 0.000000000000E+00 7.057373789616E+00 -3.874018788837E+01 0.000000000000E+00 -4.002717586019E+01 4.093320627067E+01 0.000000000000E+00 -1.636612323623E+01 2.933146888259E+01 0.000000000000E+00 2.704044879713E+02 2.505127111360E+03
 0.000000000000E+00 0.000000000000E+00 0.000000000000E+00 0.000000000000E+00 0.000000000000E+00 0.000000000000E+00 0.000000000000E+00 0.000000000000E+00 0.000000000000E+00 0.000000000000E+00 0.000000000000E+00 0.000000000000E+00 0.000000000000E+00 0.000000000000E+00 0.000000000000E+00 0.000000000000E+00 0.000000000000E+00 0.000000000000E+00 0.000000000000E+00 0.000000000000E+00 0.000000000000E+00 0.000000000000E+00 0.000000000000E+00 0.000000000000E+00 0.000000000000E+00 0.000000000000E+00 0.000000000000E+00 0.000000000000E+00 0.000000000000E+00 0.000000000000E+00 0.000000000000E+00 0.000000000000E+00 0.000000000000E+00 0.000000000000E+00 0.000000000000E+00 0.000000000000E+00 0.000000000000E+00 0.000000000000E+00 0.000000000000E+00 0.000000000000E+00 0.000000000000E+00 0.000000000000E+00 0.000000000000E+00 0.000000000000E+00 0.000000000000E+00 0.000000000000E+00 0.000000000000E+00 0.000000000000E+00 0.000000000000E+00 0.000000000000E+00 0.000000000000E+00 0.000000000000E+00 0.000000000000E+00 0.000000000000E+00