#BIOSYM hessian 1
@Type: Hessian Update
@Units
 distance: 	A
 energy: 	Kcal/Mol
#header
@natom 70

#label
C1      C2      C3      C4      C5      C6      C7      C8      C9      C10     C11     C12     C13     C14     C15     C16     C17     C18     C19     C20     C21     C22     C23     C24     C25     C26     C27     C28     C29     C30     C31     C32     C33     C34     C35     C36     C37     C38     C39     C40     C41     C42     C43     C44     C45     C46     C47     C48     H49     H50     H51     H52     H53     H54     H55     H56     H57     H58     H59     H60     H61     H62     H63     O64     H65     H66     O67     H68     O69     H70

#element
C  C  C  C  C  C  C  C  C  C  C  C  C  C  C  C  C  C  C  C  C  C  C  C  C  C  C  C  C  C  C  C  C  C  C  C  C  C  C  C  C  C  C  C  C  C  C  C  H  H  H  H  H  H  H  H  H  H  H  H  H  H  H  O  H  H  O  H  O  H 

#matrix
210
 2.794871282637E+03
 -2.019485089184E+01 2.806728974237E+03
 1.694204334078E+01 -1.893540441367E+01 1.926091149999E+02
 3.978961503253E+01 6.675162581905E+01 -1.288212518901E-01 2.802340030565E+03
 -6.413810476088E-01 -5.728269417712E-01 4.051135066084E-02 -2.950333669638E+01 2.767495216531E+03
 1.169147611163E-01 3.757538064333E-01 8.690186151620E+00 1.608624318703E+01 -1.541981216810E+01 1.911226985890E+02
 -1.924251037207E+01 3.472906380489E+01 -3.955716778389E-01 4.325044341626E-02 -5.696303418202E-02 -8.199943690413E-02 2.830898916907E+03
 -3.310291784659E+01 5.971267200050E+01 -3.410826730522E-01 -8.019082037909E-03 -6.563335724994E-02 1.057773592597E-02 2.921738009137E+01 2.760806460884E+03
 3.732943257372E-02 -1.004400199529E-01 9.178409022521E+00 -3.722371392000E-02 -4.712200782134E-03 2.134317523739E-01 1.312054355326E+01 -1.904510925070E+01 1.899629755133E+02
 3.715316942699E+01 -6.698883525452E+01 6.269036693223E-01 -1.930090060711E+01 3.499933096369E+01 -4.458401625706E-01 4.025233191170E+01 6.929678652158E+01 -2.647846201169E-01 2.797479775897E+03
 -4.583568062592E-01 8.279666606926E-01 6.875603683967E-02 -3.253136853221E+01 5.889338433299E+01 -2.285166570720E-01 -5.190867799972E-01 -8.503388253353E-01 1.156828948986E-01 1.216233252517E+01 2.812464205653E+03
 2.443395706828E-02 -3.303308926178E-01 8.868117021771E+00 1.399510643996E-01 -1.466735447997E-01 8.985229921535E+00 1.222218622869E-01 2.886301256838E-01 1.000441412895E+01 1.274570520636E+01 -1.807766993333E+01 1.954248280521E+02
 -8.623608617768E-02 1.440288094388E-01 6.294089744744E-02 1.828750983082E-01 -2.844347106714E-01 8.071419545209E-02 5.036409474992E+01 -8.346001567988E+01 8.112247362304E-01 -2.151057924252E+01 3.700962663006E+01 -4.814852993680E-01 3.162345587117E+03
 1.134075437286E-02 -1.554121382796E-02 -4.915411014157E-02 -2.152350141718E-02 1.999380954618E-02 5.819564148826E-02 -6.137620634110E-01 1.030961810632E+00 1.273664413878E-01 -3.467803461836E+01 5.972196010078E+01 -4.257528672923E-01 1.585196929545E+02 3.352003669504E+03
 -9.070847363598E-02 1.034142162596E-01 6.877086510639E-01 -3.023396375621E-01 2.285864027387E-01 4.739209601037E-01 -1.858538757703E-02 -3.633699002554E-01 1.281792692573E+01 9.483654215458E-02 1.835671388488E-01 1.159979204962E+01 1.182474610465E+01 -2.278888164138E+01 2.039604348757E+02
 -1.228731371624E+03 4.484846677747E+02 -1.085819621540E+01 -4.624752203575E+02 -1.327949254352E+01 -2.700433472226E+00 1.753169310504E-02 9.141553579826E-02 7.389387684388E-03 -6.288454905116E-02 -8.883548766245E-02 3.768294671764E-02 1.680937767787E-01 2.662196419300E-03 9.417936250121E-03 2.811027343789E+03
 4.440358752008E+02 -7.425635100748E+02 6.814987483639E+00 -1.233371319465E+01 -1.425676283775E+03 7.904275383825E+00 -3.198712495273E-02 7.139450823899E-02 -4.237647234202E-02 -4.690571768167E-02 -6.392524562907E-02 3.562158430306E-02 -2.204755457838E-02 3.876737924350E-02 -3.014421740973E-01 -6.976717861221E+00 2.763254939171E+03
 -1.101728897008E+01 7.282747879102E+00 -8.296532766481E+01 -2.874672804579E+00 7.142366752032E+00 -8.025833290556E+01 -8.736837184831E-02 5.792274823585E-02 4.901517143917E+00 1.834556855033E-01 -1.657495273184E-01 -8.903840526417E+00 6.591865617869E-02 -1.788564738277E-02 5.829715762928E-02 2.319651281949E+01 -1.311073891896E+01 1.914616604583E+02
 -1.206170877688E+03 -4.115415202202E+02 -4.088356495863E+00 -1.435263938122E-02 -5.192763424837E-02 2.373516479902E-01 -1.247027850076E+03 4.447010890546E+02 -9.192213302957E+00 -4.710706086714E+02 -1.240154581546E+01 -1.883411599500E+00 -2.041412749816E-02 -1.948820261363E-02 -8.516694454905E-02 -1.927789593190E+01 -3.251941055690E+01 -2.008063765141E-02 2.809609529732E+03
 -4.101318312291E+02 -6.944610846454E+02 1.581185742757E+00 -2.192528054282E-02 1.240935130057E-02 -8.742704044474E-02 4.542389984714E+02 -7.409243996271E+02 6.892224544797E+00 -1.579217671677E+01 -1.459066892419E+03 9.594346980499E+00 4.892327105215E-03 1.168297780184E-02 -1.019856067168E-01 3.494032560658E+01 5.875842837524E+01 -2.818270326495E-01 -2.205416903743E+01 2.773504252368E+03
 -4.097774363764E+00 1.883380513916E+00 -8.142380196643E+01 6.296961898833E-02 -6.206386604819E-02 -8.971625203257E+00 -9.021849828925E+00 6.869762250419E+00 -8.372780211481E+01 -2.069448625601E+00 9.597362875951E+00 -8.266965782825E+01 6.517443398612E-02 -2.503658215244E-01 -1.177715076930E+01 -4.711454525381E-01 -5.702092418627E-01 8.666670979360E+00 1.488146376743E+01 -1.778002194760E+01 1.926458135155E+02
 9.293854404335E-03 -1.909204086243E-02 1.633405414360E-02 -1.222743301856E+03 -4.167878246158E+02 -4.019459998007E+00 1.431223076791E-02 -1.021502253516E-02 1.589052934894E-02 -1.210882249559E+03 4.381971736355E+02 -8.738063708322E+00 4.662497799703E-02 -1.762828041233E-02 1.959926891022E-01 3.678079786449E+01 -4.213215917421E-01 2.008292457735E-01 4.007194968816E+01 -5.248640875798E-01 1.508680171907E-01 2.795947882774E+03
 -7.262535720843E-02 1.219936315782E-01 -1.072675213265E-01 -4.204158764177E+02 -7.008637216538E+02 1.197227696211E+00 -4.827655335562E-02 8.384466478853E-03 -8.780922035592E-02 4.414352837189E+02 -7.342222180382E+02 6.610720693115E+00 -2.460821738264E-01 3.855901257972E-02 -5.340321293812E-01 -6.637461253260E+01 7.451074497810E-01 -2.116643742277E-01 6.735847479977E+01 -8.039072188561E-01 4.846307573157E-01 -2.540416665455E-01 2.790648659477E+03
 1.696358258829E-01 5.630394255204E-02 -8.997888856718E+00 -3.835728147410E+00 1.639262006529E+00 -8.200504756656E+01 -4.512248369488E-02 -8.882334580948E-03 4.643614377735E+00 -8.589563568488E+00 6.575485974347E+00 -8.226728385802E+01 -1.728574921101E-01 2.356847682443E-02 5.391377265708E+00 6.640073705584E-01 -1.646732275268E-01 8.708451963126E+00 -4.088469835238E-01 1.568038343849E-01 8.781333905527E+00 1.450784763724E+01 -1.783152690410E+01 1.934085145730E+02
 4.029691287485E-02 -6.222115965187E-02 -4.966909720763E-02 -8.021697983745E-02 1.293964681382E-01 4.274982019859E-02 -1.257047618086E+03 -4.498218579876E+02 -2.711726257640E+00 6.250993902491E-03 -1.368841963321E-02 1.525094057446E-01 -6.023421177942E+02 -4.330959946169E-01 -2.131103711881E+00 -7.441124228525E-02 2.856868191825E-03 -3.003771750992E-03 -2.173865068539E+01 -3.742470180678E+01 -2.169718390304E-02 -1.378604285810E-02 9.164839207751E-02 3.739709440749E-02 2.639504820961E+03
 -1.869276294042E-02 2.963250294377E-02 3.157118103465E-02 4.139595244241E-02 -4.531598565444E-02 -4.397416032294E-02 -4.650957950251E+02 -7.769395740545E+02 2.826710877339E+00 -2.065834037260E-02 -1.240307041367E-02 -4.520549868941E-03 -2.087779867231E+01 -1.791281031430E+03 1.304576401763E+01 7.377732010728E-03 -4.682554297680E-02 -1.056530764462E-02 3.604177021558E+01 6.197654312961E+01 -9.168946846923E-02 2.437985504281E-02 -6.490451940536E-02 2.194752075489E-02 1.995466544972E+02 3.004957095090E+03
 7.640385344809E-02 -9.727405848301E-03 4.329481573736E+00 1.365538036853E-01 -9.820980856385E-02 -3.428037192745E-01 -2.864895754626E+00 2.973244573274E+00 -7.998990003196E+01 9.185282293568E-02 -3.051983801961E-01 -1.087029350212E+01 -2.219623582634E+00 1.334221466974E+01 -9.726431211420E+01 -2.382511318873E-02 5.401216415586E-02 -2.055633513513E-01 -3.286913093686E-01 -4.186275264086E-01 1.033820028810E+01 -2.168590559019E-02 1.893224906168E-01 -1.335760842401E-01 1.110663059188E+01 -2.085491144225E+01 1.743685695044E+02
 2.899633947150E-03 -1.245308407571E-02 -4.015145335251E-02 -5.487936662290E-02 2.712171599499E-02 -1.956082333526E-01 1.170321935496E-02 -1.962972762794E-02 -5.783520612067E-03 -1.233312534924E+03 -4.393188288447E+02 -2.352116073769E+00 -1.227623206703E+03 4.376730791596E+02 -8.361373110291E+00 1.861299662079E-02 5.709055698843E-02 -5.503249946662E-02 3.977658544956E+01 -5.105052878283E-01 2.930693693284E-01 -2.054398624460E+01 -3.436264452383E+01 6.178793353931E-02 5.036620359123E+01 -6.122105245677E-01 1.025230247747E-01 2.825742814025E+03
 -1.147742494056E-01 1.995852037430E-01 7.392730678642E-02 3.386153820399E-01 -4.483495002137E-01 -3.887592959621E-02 -7.214426384991E-02 -1.201632718641E-02 -3.136063368852E-01 -4.395479421340E+02 -7.364609365219E+02 1.968364715849E+00 4.409258919056E+02 -7.988062594003E+02 5.985445573274E+00 2.044826018217E-01 -7.773507475679E-02 4.250776305157E-02 -6.845856001922E+01 9.155199490881E-01 -1.539803812028E-01 3.538834814626E+01 5.894128136220E+01 -3.026041146806E-01 8.151412111702E+01 -1.101105254127E+00 6.611597247033E-01 -3.971996227062E+00 2.904802157818E+03
 -4.005298085669E-02 -8.392285693033E-02 4.294959211906E+00 1.199105799820E-01 3.298763841857E-02 4.328097613234E+00 1.572349073707E-01 2.050166204050E-02 -1.085399278253E+01 -2.610043088218E+00 2.380226336624E+00 -8.713405402930E+01 -7.937759201678E+00 6.757738237477E+00 -8.770676092990E+01 -8.462590047927E-02 1.397697732444E-01 -1.891126189728E-01 8.102709277763E-01 4.744607711220E-02 9.798042753229E+00 -4.851841503239E-01 -5.318486772463E-01 9.217555580340E+00 -6.369659474149E-01 5.998014049736E-02 1.146438824852E+01 1.220697102782E+01 -1.792374139243E+01 1.990698006674E+02
 1.212719892591E-01 -1.907242718289E-01 -4.170009113811E-02 -1.916591768787E-01 3.417201441247E-01 -7.893384722572E-02 5.492781608924E-02 1.033806390894E-02 -5.842769778199E-02 8.832195745023E-03 -4.785559731640E-02 -2.472929734768E-02 2.271322331484E-01 -2.423998232702E-02 -4.018824045110E-01 -2.083234986149E-01 2.078057475555E-02 -1.433046861128E-02 3.321935603810E-02 -6.672553119341E-04 5.700701080487E-02 -4.435832479295E-02 2.834274806485E-01 1.218030323681E-01 -1.052192479756E-01 5.237154923147E-02 2.021621732168E-01 -3.171420300073E-02 4.055392477625E-01 7.180283133534E-02 2.797733144411E+03
 -8.281798879070E-01 1.430305602007E+00 4.307764704589E-02 3.521639072335E-01 -2.437659563849E+00 -2.547511339333E-02 -5.987446679867E-02 -7.327337017851E-01 5.682108546351E-02 4.710861544768E-01 6.007001000706E-01 -2.991178689606E-02 -8.412488452395E-01 -1.144627335929E-01 -6.482932392681E-01 2.839738980244E+00 1.860141378489E+00 5.249806627443E-02 -7.134231644300E-01 5.036763132002E-02 4.118284701205E-02 -1.461008521941E-01 -3.655140154955E-01 -1.659981754909E-02 4.212260330791E-01 9.293728800670E-02 2.206728886156E-01 -2.935589546864E-01 -8.814112503345E-01 1.972295210015E-02 -4.120075026487E+01 2.753917393927E+03
 3.733347534975E-02 6.818240432853E-02 3.839379421434E-01 -1.332670876345E-01 1.225165127638E-01 6.481788874584E-01 1.007551505210E-01 -1.239497521204E-01 -5.410434018667E-02 1.738997506035E-01 -1.078073040487E-01 -7.415988085674E-01 5.210115746728E-01 -1.240089900213E-01 -7.201733973635E+00 7.824966482358E-02 3.567912560363E-01 5.387475085518E+00 -5.817012698648E-02 -1.002471238419E-01 1.035600079288E+00 -1.015875134289E-01 5.597874796803E-01 -1.146668441665E+00 -1.292086389951E-01 1.156265819759E-01 1.438220263305E+00 -2.932593044491E-01 9.453298815443E-01 -4.156102063570E-02 5.109578649469E+01 -2.219440171798E+01 1.999292555126E+02
 -5.026170322444E-01 9.232531385184E-01 -1.352878888466E-01 2.290304258394E+00 -2.238310047851E+00 3.148344831814E-01 -5.170715145978E-01 2.737127676808E-01 -1.033930815563E+00 -4.878784340425E-01 -2.283037511370E-01 -8.961959357970E-01 -2.215781217402E+00 4.458304056184E-01 -3.511684631182E+00 2.704367765612E-01 -1.472407019888E+00 -5.328621838368E-02 2.943823741362E-01 3.068438515462E-01 3.809719473722E-01 6.674778754335E-01 -2.788204685010E+00 -1.593907816802E+00 8.445572570697E-01 -7.042524497178E-01 9.177228938227E-01 9.402239943938E-01 -3.676207940940E+00 8.685832234878E-01 4.867841913881E+01 8.126340322680E+01 8.129039422574E+00 2.711677164679E+03
 1.101838920578E+00 -1.873500339621E+00 -6.307739467750E-02 -1.003764668530E+00 3.362437279565E+00 -9.859386362525E-02 2.358790783679E-01 7.707807295485E-01 5.709992361497E-02 -3.238331240962E-01 -6.134019220183E-01 1.426250190091E-01 1.629014467057E+00 2.853440769908E-02 9.495406297439E-01 -3.386896160254E+00 -1.672932539608E+00 -1.019104972554E-01 6.731557659243E-01 -1.453215493132E-01 -8.431781042838E-02 -1.204185410803E-01 1.336611987554E+00 3.039022445707E-01 -7.393897963602E-01 6.345312449794E-02 -1.597723410306E-01 2.536155116148E-02 2.166152616846E+00 -1.111372752466E-01 -3.419736112242E+00 2.213728923425E+01 -5.800783743431E-01 2.639942320521E+02 2.916417285025E+03
 -2.063402977154E-01 2.372530807649E-01 1.146174280380E-01 2.697234270400E-01 -1.351140338375E-01 -2.017965885584E-01 -1.696760111041E-01 2.598126465094E-01 9.976260179178E-01 -1.585718078555E-01 2.814364135450E-01 1.485372444149E+00 -5.186851418070E-01 9.858093143561E-02 1.225862367304E+01 -2.283162148175E-01 -7.703323218634E-01 -6.872951011986E-01 -1.303732220722E-02 -1.413613164770E-01 -1.569019035451E+00 9.460428688032E-02 -8.364640904200E-01 1.295664689712E+00 2.082203007891E-01 -1.312399938711E-01 -3.441679213555E+00 1.612075991195E-01 -1.368932827699E+00 -9.055787030964E-01 1.230355003886E+00 3.404139407524E+00 4.119531562033E-01 6.061972576809E+01 1.898579343622E+01 1.647579540240E+02
 -2.010383731775E+01 -3.346845877894E+01 -8.138926331683E-02 3.754004876111E+01 -7.520946788147E-01 3.228438829279E-01 1.261424207287E-02 -1.276150611418E-01 -1.053413948028E-02 9.148644545668E-02 1.014456026700E-01 4.417863871669E-03 -4.664260899646E-02 -3.086865526934E-02 -1.522579866212E-01 -1.238707137617E+03 -4.257631962922E+02 -9.755587341087E+00 -1.066357784775E-01 4.111689746739E-03 4.661231034554E-02 -6.362544190546E-02 6.731971251375E-02 -7.644114907062E-02 2.775620563829E-02 4.059450753471E-02 1.284282187682E-01 -7.348827575811E-02 3.088342886922E-02 5.316641701880E-02 -1.892499668667E+01 3.034096821834E+01 -1.128186627815E+00 1.854029720067E+00 3.406132511966E+00 3.036222991786E-01 2.776254658721E+03
 3.591864473773E+01 6.014216711252E+01 3.476983132098E-01 -6.760251366652E+01 1.161648503293E+00 -7.131328758636E-01 7.021699295852E-02 -9.180167385978E-03 2.278101252617E-01 4.113291075635E-02 1.792342275151E-02 1.077062415985E-01 2.931595846317E-01 -6.542650593509E-02 7.199185921436E-01 -4.305125264082E+02 -7.120346808349E+02 -5.767853335822E-01 -2.902825482891E-02 -3.900680173787E-02 -7.201658333161E-02 -6.010499171192E-02 3.201404208396E-01 1.110531107214E-01 -1.073014784095E-01 8.824296137579E-02 -2.542572393571E-01 -1.227251060244E-01 4.439846371659E-01 -2.381002159548E-01 -3.218489107990E+01 5.666116334177E+01 -5.554615640829E-01 3.429267679618E+00 -1.169525348622E+00 1.099530173439E+00 1.013294120323E+01 2.794200226593E+03
 -4.336126405221E-01 -2.929853402792E-01 9.734482401145E+00 5.795422960944E-01 8.321337849347E-02 9.145558473229E+00 -1.872026627042E-02 8.335598546745E-02 2.093566139965E-01 4.363796711674E-02 -2.902989819994E-02 2.403989764097E-01 5.150417971638E-04 1.227912686838E-02 1.815404425198E+00 -9.834290577918E+00 -1.279653720784E+00 -8.248562875824E+01 -1.475440638018E-01 -4.819998063958E-03 4.344291360082E+00 3.102515251775E-02 3.273953728829E-02 4.591001776755E+00 1.455144914763E-02 -3.100249558433E-02 -5.683269482995E-01 -4.335665513577E-02 -9.462809028234E-02 -2.018056979791E-01 -3.329031752541E-01 4.265683683243E-01 6.936705521118E+00 -5.609280871754E-01 1.841503422574E-01 2.136354615145E+00 2.925729779129E+01 -1.697755044263E+01 1.908409641320E+02
 2.520971305576E-01 -3.909618706781E-01 -5.105487869017E-03 -1.900524943317E+01 -3.020447286321E+01 -1.206487521206E-02 6.239733704819E-02 1.483996226691E-01 -5.404310583400E-03 -7.555994907767E-02 -1.526192188218E-01 1.234313474215E-02 3.470149605380E-01 -8.914593794683E-03 -1.718861189380E-01 -7.091734202569E-01 -4.194066771363E-01 -1.506230513280E-02 1.487688339153E-01 -2.368653214496E-02 2.245164296967E-02 2.135598736003E-03 2.814210456560E-01 4.124285146604E-02 -1.636864286891E-01 2.876197342318E-02 1.335364867226E-02 2.172794694115E-02 4.825352427433E-01 -1.334734455617E-02 3.762869659633E+01 -6.214504147874E+01 1.139734291894E+00 -2.190178958736E+01 3.432895396343E+01 -4.169735524459E-01 4.052586351421E+01 6.632932267501E+01 5.686337764719E-01 2.793234067872E+03
 -2.700148620608E-01 4.692174278531E-01 -7.686069774746E-02 3.406632648532E+01 5.481730140610E+01 2.337269639826E-01 -3.992766584501E-02 -2.159225192404E-01 -3.208490454726E-02 1.218925871236E-01 1.740050147842E-01 -1.899579077694E-02 -3.488003526912E-01 -1.781771317371E-02 -1.749655062872E-01 8.342991510269E-01 5.103398961868E-01 -6.991600735688E-02 -2.047304667373E-01 2.760938034591E-02 2.603099597584E-02 -1.501184812703E-02 -2.120578509441E-01 -2.449550518707E-02 1.613602695724E-01 1.885104186780E-03 9.378387874007E-02 -4.859815416017E-02 -4.126748136478E-01 6.848671050778E-02 1.132552790784E-01 -6.304419633035E+00 -5.297376774921E-01 -4.189377739227E+01 8.080784985573E+01 2.412560699198E-02 -1.284183007335E+00 -3.874064433980E-01 -1.251880102703E-01 -5.823711004739E+01 2.746797964097E+03
 -6.867517255229E-02 -8.347843751161E-03 -2.217437135657E-01 -3.481516593707E-01 -1.830221744633E-01 7.639235272342E+00 -1.931239915272E-02 2.216382586394E-02 -2.702007965084E-01 3.651734797549E-02 1.084015786466E-01 -4.670026952581E-02 -4.217369296627E-02 7.545381635927E-02 2.038699712171E-01 2.521355789817E-01 -6.152313067431E-02 -9.110316356063E+00 7.756474487537E-03 4.710684647644E-03 -1.088228825814E-01 -2.076246395190E-01 1.508675694059E-02 4.346624340864E+00 4.696682398817E-03 -6.683054495686E-02 2.337786273392E-01 -9.086322733725E-03 -4.144410320877E-02 2.669803265359E-01 5.754882507857E-01 -1.494376442615E+00 8.167154778361E+00 -3.930199785202E-01 2.094509453134E+00 1.425358624864E+01 3.178540057095E-01 7.386070140991E-01 8.610098099962E+00 1.865792485360E+01 1.213394063142E+00 1.853107656679E+02
 -5.069083882781E-01 8.287491041337E-01 2.433629237937E-01 -1.114423387938E+00 -9.037555580525E-01 6.681908811092E-03 2.629914740442E-01 -8.069682619725E-01 1.009825978339E+00 7.300183431936E-01 8.579081382869E-01 9.683090124253E-01 4.740552194335E-01 -3.768298352802E-01 5.226392665727E+00 2.452370573544E+00 2.536636905503E+00 -1.839051433338E-01 -9.067356045955E-01 -1.662667739730E-01 -7.179517324854E-01 -5.934591263911E-01 1.175958355394E+00 9.533027857671E-01 -9.026066216463E-02 4.809293213088E-01 -1.565223412926E+00 -8.892513848294E-01 1.108103017669E+00 -8.998579656274E-01 -1.267886169651E+03 4.225844579343E+02 -3.570216001937E+01 -4.896403034490E+02 -4.793249715944E+00 -4.241674488920E+00 -4.391507447141E+00 -1.701167840283E+00 8.137729077814E-01 4.116246531993E+00 -6.447914863162E+00 1.256924964010E-01 2.527223745091E+03
 -3.865932460654E-01 6.280942144683E-01 2.190539647981E-01 -8.949943176484E-01 -6.497005178412E-01 1.176468780872E-01 2.023882424265E-01 -6.433095134370E-01 8.513723378115E-01 5.399258961069E-01 6.383737676444E-01 7.497682380717E-01 4.006629403329E-01 -3.159420650257E-01 3.673172001330E+00 1.932067916084E+00 1.971683186143E+00 -6.876495330207E-02 -6.738899287700E-01 -1.365510683949E-01 -4.826832485903E-01 -4.086707997971E-01 9.046920484511E-01 7.678727614253E-01 -7.474011760603E-02 4.019687277659E-01 -1.225902143691E+00 -6.888038429648E-01 8.993587823417E-01 -7.624101829455E-01 4.728211530318E+02 -7.605284803456E+02 2.844470825745E+00 -3.488002460280E+01 -1.632179175323E+03 -4.728658301019E+00 -3.414089997850E+00 -1.325145202704E+00 5.340769200355E-01 3.157954765640E+00 -4.680639785885E+00 1.314033186773E-01 -1.556070965463E+02 2.734620941236E+03
 -1.325133616878E-01 1.629741351902E-01 -2.398560252692E-02 -8.500472158790E-02 -2.703158757722E-01 -1.171913390002E-01 -7.785437061766E-03 -1.218413054161E-01 1.523093440385E-01 5.400062849157E-02 1.349051702336E-01 2.319696155533E-01 -1.023037699095E-01 -3.257038974541E-02 1.652797348410E+00 4.729398959383E-01 3.407441294098E-01 -1.256166029244E-01 -1.053507409857E-01 2.537968671295E-03 -2.197066320380E-01 -1.776326975032E-02 -2.816887480199E-02 3.497098026483E-01 4.782658816013E-02 4.944060963197E-02 -3.963676167763E-01 -4.773437279907E-02 -1.206787160090E-01 -1.056345094128E-01 -2.923595080596E+01 5.366101340438E+00 -8.915281741843E+01 -1.442503126014E+01 -1.047997904757E+01 -7.520802271472E+01 -6.498324110780E-01 -1.683252738176E-01 4.854948924526E+00 6.944463238871E-01 -1.019165688316E+00 -1.069189902262E+01 9.431616634691E+01 2.682286927783E+01 2.388109683329E+02
 3.739277777449E-01 -6.797205673844E-01 -1.625130548412E-02 -4.871468333750E-01 1.187037674556E+00 -1.482714060200E-01 8.870235255939E-02 2.353278500544E-01 1.013752693376E-01 -9.996970181058E-02 -2.009267637862E-01 4.986531085063E-02 6.556600470882E-01 -1.591451318784E-02 2.413888055037E-01 -2.055695662014E+01 3.446801485357E+01 -5.206377459344E-01 2.307761744354E-01 -6.454152721560E-02 -1.807186337037E-02 -4.960773125339E-02 5.664907630745E-01 1.783133720757E-01 -2.807363381949E-01 6.306565581041E-02 -5.488711767005E-02 -3.722984731607E-02 8.992382413369E-01 -1.146729046302E-01 -1.197992201193E+03 -4.057942947570E+02 -1.720572848672E+01 3.390926280565E+00 -1.002745250020E+01 2.027931921471E-01 -1.180739092625E+03 4.293491122358E+02 -1.631484908342E+01 -4.679365616430E+02 -1.568071755472E+01 -3.812757994994E+00 -1.485644263779E+01 -2.961677841981E+01 7.831903640617E-01 2.728124014461E+03
 2.539996474093E-01 -4.447781264161E-01 -6.027363949040E-02 -6.042216329880E-02 7.222276608203E-01 -3.628339050596E-02 7.943892500281E-03 2.187016634756E-01 -1.730654377636E-01 -1.671766429574E-01 -1.956560450224E-01 -6.726779501089E-02 1.753804011641E-01 5.834060672833E-02 -2.948316778843E-01 -3.332813928132E+01 5.762211651255E+01 -9.993877978343E-01 2.421417618813E-01 2.247433783969E-02 -6.174585874555E-03 5.636312430988E-02 3.212251394430E-02 3.321175937694E-02 -1.109992814490E-01 -5.360505338368E-02 1.191583539655E-01 1.426116317879E-01 1.737089743129E-01 1.325353058047E-01 -4.191947133635E+02 -6.893497779835E+02 -4.285148303692E+00 -1.964539765654E+00 -7.306396053724E+00 -6.579442910210E-01 4.323834650588E+02 -7.198828882379E+02 8.060716451543E+00 -9.495948433610E+00 -1.474126813325E+03 -8.041380556961E-02 4.363278724395E+01 6.605018562467E+01 1.682181000108E+00 -1.032787412150E+01 2.772658214275E+03
 -7.637322410666E-02 -8.016516673859E-03 4.623050978561E+00 9.602152163619E-02 -5.579291210973E-02 -8.722131257436E+00 2.002855303320E-03 3.965139003372E-02 1.284488347024E-01 5.529322393978E-02 1.654549298818E-02 1.096168889813E-01 1.198533236617E-01 -1.272142882895E-03 6.604166629730E-01 -2.434622602404E-01 -1.421201437985E-02 8.918281828735E+00 -4.195788066755E-02 -6.556035188439E-02 -7.460660940660E-02 -5.850617256225E-02 1.391795696911E-01 7.291851590992E-02 -2.993126264793E-02 1.211733250059E-03 -2.355339410965E-01 -7.711436423466E-02 1.272427398069E-01 -1.258007796241E-01 -1.724901901694E+01 -3.859584132674E+00 -8.043081503068E+01 1.073577728636E+00 -2.925839885926E-01 -9.815050595374E+00 -1.627820243015E+01 8.138346348965E+00 -8.016882748657E+01 -4.229829397412E+00 -8.929208652123E-01 -8.110402819036E+01 -1.176713040711E+00 -1.392911838505E+00 1.105230123009E+01 3.678994000698E+01 -2.542379240267E+00 1.875442315865E+02
 -3.380320461220E-02 3.287402244309E-02 1.586057521553E-01 -5.825704815574E-01 2.059382205122E-01 4.494417459642E-02 1.312686072092E-01 -1.622669514489E-01 4.993908045162E-01 2.202693992369E-01 2.535484703270E-01 4.768112194507E-01 4.281595029112E-01 -1.381351710502E-01 2.827725125061E+00 3.819867046356E-01 6.437638192370E-01 -3.936787386290E-02 -2.428009482363E-01 -1.044701453159E-01 -3.642677627268E-01 -2.484112936809E-01 6.069036749330E-01 3.573345448046E-01 -1.409345521608E-01 1.824375879188E-01 -8.806446538681E-01 -3.480791541864E-01 6.929928586857E-01 -4.753953164608E-01 -4.436778815392E-01 -4.803097152085E+00 -3.317464001918E+00 -1.438018422363E+03 -5.040991989073E+02 -2.513373525273E+01 -1.133562522167E+00 -7.428003510637E-01 4.290219585449E-01 -1.317556738832E+03 4.520645685700E+02 -9.159555727546E+00 4.238325697586E+01 -7.894948890393E+00 1.778643589126E-01 4.072397598159E+01 1.497696910521E+00 2.200229842634E-01 3.049708157842E+03
 1.054982470536E-01 -1.962474563294E-01 6.817585334108E-02 -3.276076169913E-01 4.249522727784E-01 1.089474259459E-02 7.491088806070E-02 1.078417885743E-02 1.598870451960E-01 4.271694582372E-02 1.376376529665E-02 1.231352977563E-01 3.354083873568E-01 -5.211109687499E-02 6.237554327306E-01 -1.926903559734E-01 9.446165440886E-02 3.707431254155E-02 -9.062486912559E-03 -4.385087356782E-02 -7.150591779285E-02 -9.474324118061E-02 3.702474815727E-01 8.179530379375E-02 -1.316241703434E-01 7.783043564465E-02 -2.077728609224E-01 -1.241141990725E-01 5.107622728076E-01 -1.615723942041E-01 -3.166927658365E-01 9.079542405871E-01 -3.061365225376E-01 -5.061472792733E+02 -8.449106277903E+02 -1.429294695945E+01 -6.184899538964E-02 -4.258288361885E-01 1.316723473264E-01 4.397928978024E+02 -7.484650786433E+02 -7.512538867496E-01 -8.882282774476E+01 1.283621695290E+00 -1.732653755068E+00 7.236030983579E+01 -7.035467894737E-01 5.435229567909E-01 4.619930990947E+01 2.542697276812E+03
 2.501920491353E-02 -5.885826598780E-02 2.167197219723E-01 -1.599461789333E-01 -9.119042211118E-02 4.973401096087E+00 -1.050261014911E-03 -4.665702855998E-02 1.697375622623E-01 -7.118257693170E-02 -9.162234630591E-02 -1.003082077259E-01 4.718579818057E-02 -6.032240908736E-02 -1.346839128827E+00 4.155701267773E-02 1.745954388225E-01 4.206196869930E-01 5.498931937276E-02 1.899733017705E-02 2.566338345355E-01 1.584279679995E-01 -2.854466119928E-02 -2.593759916194E-01 3.648055291586E-03 5.643869891865E-02 7.828302097126E-02 -1.146694801094E-03 5.830625273248E-02 -1.781438078269E-01 4.485688050812E-02 5.744581988739E-01 -7.715316469648E+00 -2.894969557771E+01 -1.518516721900E+01 -7.274099448691E+01 1.426447954873E-01 4.265116530029E-02 4.375157246597E+00 -9.364283016787E+00 8.114093460553E-02 -7.859549417142E+01 -4.825266706685E-01 -2.859802022733E-01 1.370195854099E+01 -2.517996158754E-03 -5.036305504010E-01 9.174421574757E+00 4.303023364643E+01 2.809427089030E+01 1.526843288915E+02
 1.745455475211E-01 -3.363420642380E-01 2.020513700938E-02 -1.238384068245E+03 4.552302204230E+02 -9.566705572065E+00 1.207127094667E-01 -2.705028549121E-03 3.514143265618E-01 7.582989548237E-02 3.322303398893E-02 2.447256789748E-01 6.255191411613E-01 -9.974495243854E-02 1.314046801026E+00 4.060945741763E+01 -2.445721920320E-01 2.949240826501E-01 -1.743838941708E-02 -8.941202931992E-02 -8.633072542673E-02 -2.033565250438E+01 3.719240309924E+01 -1.133182067688E-01 -2.303670805171E-01 1.610118325376E-01 -3.751425919942E-01 -2.451574836720E-01 9.510004792411E-01 -3.094660014558E-01 -7.398121854993E-01 7.344839911193E-01 -1.532380091436E+00 7.267342533137E+00 -3.149434325667E+00 2.148995227054E+00 -1.716965614899E-01 -8.413509771692E-01 1.399448378171E-01 -1.126959228365E+03 -3.795306520227E+02 -7.265427501658E+00 -3.260771212548E+00 -2.536489622733E+00 2.352703754078E-02 3.405830029215E+01 -3.597849039323E-01 -6.399009500113E-02 -1.960086697076E+01 -3.360945567546E+01 -9.068026120524E-03 2.728515287072E+03
 -4.057400016950E-02 8.094445707482E-02 7.771791187937E-02 4.647816126251E+02 -7.543431305476E+02 6.659239705913E+00 -5.187769576726E-03 -2.908823647770E-02 -2.075741820956E-02 7.418985906830E-03 1.615111843823E-02 1.197104064862E-02 -1.024725585239E-01 -2.641235622368E-03 5.323921519003E-02 6.742800483508E+01 -7.856992549145E-01 5.917671879585E-01 -2.972864611582E-02 2.202008522025E-02 -6.088883397110E-02 -3.309669147672E+01 5.989212765921E+01 -6.327020757193E-01 3.237194584632E-02 -4.922302436117E-03 -3.551950974305E-02 2.970628360992E-02 -1.381533456523E-01 -4.249405615548E-02 1.133156044534E-01 -8.264472471508E-01 -1.132752586111E-01 -7.150865629999E-01 1.236850725096E+00 3.012535170360E-01 -1.180020777376E-01 9.525221085484E-02 1.080953072076E-02 -3.802446959125E+02 -6.579688280329E+02 -1.420990729462E+00 -2.165840342288E-01 -2.393628040149E-01 -1.213849854493E-01 -6.326129208261E+01 7.372556417091E-01 -2.157379305523E-01 3.247414754971E+01 5.884992796116E+01 5.757543328282E-02 -2.474938015404E+01 2.811840108724E+03
 1.190385162768E-01 -9.944236623504E-02 4.307705311062E+00 -9.940505483729E+00 7.010073652461E+00 -8.358760062852E+01 -1.174361647188E-02 -9.564496867584E-02 -6.973021196700E-01 -6.991113487700E-02 -1.681670479306E-01 4.116058406102E+00 -5.932402502158E-02 4.622031354730E-02 -3.877509861136E+00 -2.731211927975E-01 1.829755807993E-01 8.561329330792E+00 4.897075381221E-02 2.125356764943E-01 4.352073614524E-01 -4.876932970377E-02 7.491822414955E-02 9.678833821782E+00 -1.849894501416E-02 -9.913027703574E-03 1.538521472752E+00 1.086652091339E-01 1.926542268635E-01 7.284373522052E-01 2.546125952867E-02 1.620498111763E-01 5.438182347915E+00 7.277052280615E-01 -4.540919494015E-01 2.015867973330E+00 3.417814304829E-01 -2.598817729481E-01 -9.356632415907E+00 -6.770532779483E+00 -7.661380178884E-01 -7.985463209816E+01 -1.754864731791E+00 -1.031191589702E+00 -3.031968638541E-01 1.359056529428E-01 -2.701418466862E-02 7.845177011348E+00 -1.371574409533E+00 -5.521570799349E-01 1.038988941297E+01 1.917338591895E+01 -1.797045486868E+01 1.881333886742E+02