#BIOSYM hessian 1
@Type: Hessian Update
@Units
 distance: 	A
 energy: 	Kcal/Mol
#header
@natom 68

#label
C1      C2      C3      C4      C5      C6      C7      C8      C9      C10     C11     C12     C13     C14     C15     C16     C17     C18     C19     C20     C21     C22     C23     H24     C25     C26     C27     C28     C29     C30     C31     C32     C33     C34     C35     C36     C37     C38     C39     C40     C41     C42     C43     C44     C45     C46     C47     C48     C49     H50     H51     H52     H53     H54     H55     H56     H57     H58     H59     H60     H61     H62     H63     H64     H65     H66     O67     H68

#element
C  C  C  C  C  C  C  C  C  C  C  C  C  C  C  C  C  C  C  C  C  C  C  H  C  C  C  C  C  C  C  C  C  C  C  C  C  C  C  C  C  C  C  C  C  C  C  C  C  H  H  H  H  H  H  H  H  H  H  H  H  H  H  H  H  H  O  H 

#matrix
204
 2.784197814200E+03
 -2.304560194169E+01 2.800991827024E+03
 1.280599125228E+01 -9.705681207737E+00 1.919283381800E+02
 3.947951299357E+01 6.673056551360E+01 1.511073245155E-01 2.808335526997E+03
 -3.535735252712E-01 -5.894546114538E-01 -1.023556997625E-01 -2.981348045818E+01 2.770402124358E+03
 1.038707743641E-01 3.995720335305E-01 8.256212116474E+00 1.437369546761E+01 -5.776278824897E+00 1.916538283747E+02
 -1.897226488784E+01 3.422696126255E+01 -1.934706613062E-01 2.455978847243E-02 1.425929054305E-02 -3.267667849049E-02 2.800800222911E+03
 -3.258967292058E+01 5.907320999782E+01 -1.367529857664E-01 1.175986460678E-01 -1.361265607463E-01 -2.058377693076E-03 2.609161681202E+01 2.753756906458E+03
 -1.650049283055E-02 -3.447473034171E-02 9.156002354129E+00 4.431869148362E-03 -1.378261079162E-02 -7.621150251618E-02 7.926841779449E+00 -8.722206068796E+00 1.861866935078E+02
 3.676490600911E+01 -6.638072219309E+01 4.210916059930E-01 -1.952669043788E+01 3.508098057793E+01 -4.138874669901E-01 4.041570352926E+01 6.874896267107E+01 8.374272233216E-02 2.801245092255E+03
 -3.427502264645E-01 6.416756226577E-01 5.982320102183E-02 -3.281545206146E+01 5.917938066271E+01 -2.745526604008E-01 -1.871509633524E-01 -6.809589315758E-01 3.483632681400E-02 -1.954271571412E+00 2.807347474377E+03
 6.832236570948E-02 -3.240075841305E-01 8.670892572804E+00 1.011696223968E-02 1.309476686817E-01 8.970059896627E+00 8.482023131214E-02 2.186739633455E-01 9.480676937630E+00 9.528651470097E+00 -6.765268567982E+00 1.935545201617E+02
 3.076038516470E-02 7.512011694099E-02 3.161577923364E-02 4.853903813008E-02 -5.889470030577E-02 -9.331754483638E-02 5.073986107877E+01 -8.344090335343E+01 3.343146077533E-01 -2.169238250273E+01 3.754252056310E+01 -1.985787278142E-01 2.609107617981E+03
 2.699842584763E-01 -4.241117055542E-01 -1.405227031811E-01 6.418862424756E-02 1.411736355010E-01 2.333817410947E-01 -8.228875903445E-01 1.109801464294E+00 -4.429915646588E-02 -3.396327119987E+01 6.182270178808E+01 -1.640598892564E-01 -1.734627558845E+02 3.053448326666E+03
 -5.271225179880E-02 4.060722180023E-02 -3.745138475067E-01 -6.749269707538E-02 6.113803926337E-02 3.794757913453E-01 8.738931717414E-02 -2.420129390761E-01 1.243663080695E+01 -8.810393852825E-02 5.303273366691E-02 1.081795068361E+01 7.208534178391E+00 -7.696972910796E+00 1.506047315156E+02
 -1.226871326630E+03 4.473466218512E+02 -7.677394663393E+00 -4.623718750199E+02 -1.121202525561E+01 -1.892202189726E+00 -1.031169080746E-01 -1.049876638362E-01 -4.996378080519E-02 3.130627296022E-01 1.341905628918E-01 -5.360493656498E-02 -1.450150705066E-02 -4.213138351646E-01 7.848960376701E-02 2.809521601776E+03
 4.420193433496E+02 -7.396690995490E+02 4.086678486208E+00 -9.950050330513E+00 -1.425270726448E+03 2.881962455841E+00 -7.495596116339E-03 8.635651011879E-02 1.108800162270E-02 6.534802808472E-02 1.960570968600E-02 8.836599492281E-02 3.727003817178E-02 -8.042377737042E-02 -3.131086619421E-02 -5.724475823496E+00 2.762305287295E+03
 -7.567055200382E+00 4.132117338889E+00 -8.296518662947E+01 -2.500327471772E+00 2.787903464570E+00 -8.027298913259E+01 -7.984700534610E-04 -2.847100822543E-02 4.621760662389E+00 -4.571065884650E-02 -1.907898938131E-01 -8.933153583879E+00 -5.874788247856E-02 2.677506296337E-03 2.094444963148E-01 1.863703197302E+01 -4.564078482056E+00 1.910845854230E+02
 -1.197718046702E+03 -4.088935087213E+02 -3.714409304372E+00 9.374769093453E-02 -9.296594108326E-02 1.302157065486E-01 -1.238123502558E+03 4.426712001473E+02 -5.085536024377E+00 -4.700073597452E+02 -7.621995451136E+00 -1.306088988383E+00 -1.209461874173E-01 3.990386080050E-01 -1.926268091568E-03 -1.928006036237E+01 -3.232515388799E+01 -5.223087547216E-02 2.791216016982E+03
 -4.078578556244E+02 -6.888543598680E+02 -5.814884151616E-02 3.702493126872E-02 3.188394798299E-02 1.025178802378E-01 4.516738440537E+02 -7.352293110098E+02 3.382211968978E+00 -1.014594140100E+01 -1.461375060542E+03 3.656777723470E+00 1.040560329772E-01 -4.561978375211E-01 5.837111329813E-02 3.444990295749E+01 5.830520374986E+01 1.026149557674E-01 -2.771078871497E+01 2.766401808798E+03
 -3.721148497709E+00 2.255211639540E-01 -8.052315614470E+01 1.646176025950E-02 -5.733527246332E-02 -9.032968265488E+00 -5.041616151312E+00 3.314522406501E+00 -8.269673768352E+01 -1.298234512667E+00 3.673933160697E+00 -8.207718362917E+01 8.681968171296E-02 -1.833010829835E-01 -1.058093820170E+01 -2.738090495888E-01 -3.673320480974E-01 8.544905513107E+00 9.956646722569E+00 -6.840060227892E+00 1.907067088402E+02
 1.073344659912E-01 -8.683138590916E-02 -1.242395354734E-01 -1.226465262945E+03 -4.186403949517E+02 -4.613910236089E+00 -1.143818092006E-01 5.297940109405E-02 -6.646265058744E-02 -1.217079163671E+03 4.396598677770E+02 -5.578375637119E+00 5.393662001564E-02 -4.919687166901E-01 9.569168681734E-02 3.671850803303E+01 -3.773200503281E-01 3.446204286738E-01 4.030553341228E+01 -4.447967059255E-01 2.358838106849E-02 2.806592725992E+03
 -5.774385564926E-02 1.258119020678E-01 1.763154034452E-02 -4.222933207209E+02 -7.041738876691E+02 -8.194519706009E-01 1.170069768159E-01 -1.316980576657E-01 8.284432308618E-02 4.417380768585E+02 -7.369842897761E+02 3.036057724929E+00 -8.086676981568E-02 5.503500930912E-01 -9.469855275810E-02 -6.654687206259E+01 7.060777996570E-01 -3.600040713792E-01 6.761402353044E+01 -3.674959083195E-01 3.786740012921E-01 2.826314953995E-01 2.798367446759E+03
 1.149711187824E-01 4.341470508924E-02 -8.788603884992E+00 -5.018415723675E+00 -4.984693917929E-01 -8.240470200218E+01 3.238833333488E-02 -6.808903127888E-02 4.715311950019E+00 -5.482369436304E+00 3.254659294322E+00 -8.293766015640E+01 -9.284143963516E-03 -5.228971993927E-02 4.531964879995E+00 3.537046160545E-01 -8.206689703851E-03 8.713417621303E+00 -1.491784239751E-01 3.322089150123E-02 9.005439939875E+00 1.182696885141E+01 -5.498534288065E+00 1.941024848894E+02
 8.386689162378E-03 -6.498781187253E-01 -9.076006134663E-02 -1.711502516549E-01 3.652771792917E-01 1.818647686763E-01 -1.237379252835E+03 -4.433772112210E+02 -2.202300431846E+00 1.315700047622E+00 7.180300134764E-01 8.371005344162E-02 -5.668964387048E+02 -1.036154603446E+01 -1.296636857825E+00 -1.500566456165E-01 -2.189511777912E-01 -2.971880388891E-03 -2.065179073642E+01 -3.750422451344E+01 -1.705703915511E-01 -5.105854122977E-01 7.131922536880E-01 -2.029995318825E-02 2.597936721649E+03
 -2.938176669068E-01 -3.436829374353E-01 8.154677948741E-02 -2.912212951808E-01 3.038264481373E-01 7.114710358084E-03 -4.593888687132E+02 -7.700047083140E+02 6.849355802888E-01 4.216675928601E-01 3.306312724672E-01 -2.040592721934E-03 -1.816555560286E+01 -1.817682587532E+03 4.526121064292E+00 2.792927333510E-01 -1.859377293888E-01 3.513279829459E-02 3.598760356432E+01 6.051200351537E+01 -1.374903836115E-01 -9.969072149567E-02 2.827673337493E-01 4.243440480441E-02 1.866986256597E+02 3.027854647637E+03
 4.894854112067E-02 6.569834603093E-02 5.078672100157E+00 1.282049277862E-02 -4.603183476746E-02 -3.546514285419E-02 -2.078450939170E+00 7.884638726259E-01 -7.667858988425E+01 -7.533109399637E-02 -1.209662428640E-01 -1.047169786243E+01 -1.382192533847E+00 4.576325347025E+00 -7.061683271658E+01 -2.895737348551E-02 -5.615369609702E-03 5.323600224183E-03 -2.676984263221E-01 -3.352403095387E-01 9.689666637262E+00 2.759716582684E-02 -2.909218000619E-02 2.641328316258E-02 6.670746180572E+00 -7.063287802489E+00 1.523914660518E+02
 2.045202119620E-01 -2.848994649920E-01 -1.259174441768E-01 5.871336842299E-02 8.236301949504E-02 1.094952295084E-01 -2.220712548833E-01 2.035595715888E-01 -1.075157854925E-01 -1.230494897316E+03 -4.332218433776E+02 -2.828205026818E+00 -1.264983167585E+03 4.651090745897E+02 -4.378273066107E+00 -3.204744371091E-01 -4.296080100715E-02 7.961001233746E-02 3.933783938669E+01 -6.355661725978E-01 8.645158771044E-02 -2.056955462988E+01 -3.366299219628E+01 -1.422585244870E-02 5.060604000198E+01 -8.586674945539E-01 1.445272471953E-01 2.852334091123E+03
 9.970089995942E-02 1.217427635716E-01 4.771565327607E-02 1.160177868837E-01 -1.161707737909E-01 -1.907497176481E-02 5.441616021798E-02 -2.883617669496E-01 -3.325434944218E-02 -4.318560211633E+02 -7.282037497025E+02 7.024903532664E-02 4.560013851681E+02 -7.899944272984E+02 2.773551439851E+00 -1.047035480887E-01 7.967476399301E-02 2.739747731648E-02 -6.869607232881E+01 6.204761467499E-01 -1.520063586964E-01 3.534872226298E+01 5.934899330898E+01 -7.606823239720E-02 8.555093876838E+01 -1.163170108122E-01 2.332111659985E-01 -4.079215335114E+01 2.881324710051E+03
 -5.133413838165E-02 -3.063361211752E-03 4.499674833807E+00 1.506496579256E-02 -1.018940639618E-02 4.457532002536E+00 5.493082142675E-02 3.202974448130E-02 -1.051729808052E+01 -2.995125016151E+00 7.243915846322E-02 -8.489022667646E+01 -4.312967805776E+00 2.974649545369E+00 -7.756513673710E+01 4.456666605693E-04 3.396887726155E-02 -7.066664946712E-02 3.632814829602E-01 6.930811562571E-03 9.820580138460E+00 -1.577822977817E-01 -2.417033097739E-01 9.062665276009E+00 -9.115459041799E-02 -3.297098615820E-02 1.091598052748E+01 8.427031977288E+00 -5.752791041387E+00 1.852396006603E+02
 -7.125983830632E-01 4.467149429977E-01 3.576734944253E-01 -3.521605154593E-01 9.594941555908E-03 -2.881118716092E-01 5.453529345161E-01 -9.152539571204E-03 2.021694480488E-01 -1.634606200891E+00 -6.517527391211E-01 -1.703365829910E-02 -2.205099548266E-01 2.298586298366E+00 -1.625387137322E-01 9.640191029365E-01 -3.202703516633E-02 -6.029731769397E-02 -3.538260791006E-02 6.087173474056E-01 7.200521650091E-02 7.544894108257E-01 -6.897852155846E-01 6.273616432491E-02 1.954625664096E+00 -4.638084711723E-02 1.144557943363E-01 1.708953031749E+00 -3.437556278615E-02 -1.144980130570E-01 2.805574812268E+03
 5.962828997833E-01 -7.554393606223E-01 -2.439302575158E-01 1.895728955920E-01 2.116330752426E-01 4.132258616448E-01 -7.119957091987E-01 5.542787287750E-01 -2.438646607401E-01 2.175747543901E+00 9.810621459857E-01 2.742325899078E-02 4.556548889699E-01 -3.237265381162E+00 2.379383533765E-01 -9.008585396345E-01 -1.208108231933E-01 7.963729410732E-02 5.310186300289E-01 -8.381585123895E-01 -2.106413032370E-01 -9.406857757626E-01 9.982162137517E-01 -1.346141942155E-01 -3.754027263972E+00 -1.161783604851E+00 1.523902684329E-01 -2.308394392611E+00 4.792361057009E-01 9.841418148069E-02 -3.726799196400E+01 2.766467515903E+03
 7.158395992595E-02 -3.283059045110E-02 2.376188502580E-01 1.057242668520E-01 -6.218460881130E-02 -3.169258834336E-01 -2.960273371739E-02 9.668332773462E-02 7.103664871597E-02 2.135778027170E-01 7.464408299123E-02 -1.987607204037E-02 1.584516751062E-01 -1.480867918755E-01 -4.395133003664E-01 -2.275513316105E-01 -1.142046366727E-02 4.245545161870E+00 2.753579595900E-02 -7.494176712238E-02 9.376144864548E-02 -1.262658052248E-01 1.368506236272E-01 1.812510971302E-01 -2.713025744638E-01 -2.524406101748E-01 1.209405851788E-02 -1.906944201735E-01 1.123646168055E-01 1.471022851142E-01 4.374590551485E+01 -1.507800244927E+01 1.911702659836E+02
 -5.820071346195E-01 4.582046224659E-01 2.634091805593E-01 -2.622897527153E-01 -5.039975337157E-02 -4.043128929956E-01 5.221489502661E-01 -1.624619691836E-01 1.873996781220E-01 -1.566192060302E+00 -6.551131043663E-01 -2.045918764862E-02 -2.275779227211E-01 2.275421792729E+00 -2.607017201640E-01 8.291870202919E-01 3.337970219400E-02 -1.377551125924E-01 -1.630208848266E-01 5.980446970220E-01 1.350335051715E-01 7.011530873921E-01 -6.778134889736E-01 1.226671754316E-01 2.211417938768E+00 2.722418461208E-01 -3.682458584889E-02 1.649368784143E+00 -1.389911876684E-01 -5.773739451393E-02 4.287704237168E+01 8.261617641293E+01 1.825316231235E+00 2.738063525002E+03
 -1.225723460406E+00 7.988621957808E-01 5.646280532544E-01 -5.973461999433E-01 -1.732339761219E-02 -7.754246663228E-01 9.894019731781E-01 -8.099535264300E-02 3.652708699098E-01 -2.934141379403E+00 -1.184538290088E+00 -2.976430036282E-02 -3.565098077922E-01 4.195646305038E+00 -4.838401493653E-01 1.689876634191E+00 -1.309687856247E-02 -2.390513272785E-01 -1.172055962737E-01 1.108891706347E+00 2.325738126800E-01 1.342007599463E+00 -1.231352001576E+00 1.834878974831E-01 3.680591053891E+00 1.031390775485E-02 1.973966185561E-02 3.076013051415E+00 -8.333818200344E-02 -1.191612422965E-01 -8.390527932187E+00 6.399880045653E+00 4.666134591388E-02 2.533338422153E+02 2.933552661933E+03
 2.404179342022E-02 4.254056189469E-02 2.111931188544E-01 -9.933584770981E-03 -8.398701314711E-03 1.907503636757E-01 1.058399687452E-02 -5.180771372502E-02 8.849646770450E-02 -6.010515517345E-02 -4.733605314707E-02 -4.121152251339E-02 -1.394332632148E-01 -2.620801809907E-02 2.095966989879E-01 -3.985398365762E-03 -7.745292756934E-03 1.237818283851E-01 -5.032152943694E-02 1.080799972979E-02 -1.761990790399E-01 5.164713619456E-02 -5.225309533040E-02 -9.800309820187E-02 6.408521448308E-02 2.023517021123E-01 3.797594767936E-01 5.452171445948E-02 -7.533223296206E-02 -1.213959170298E-01 6.083124512644E-01 1.908203241418E+00 1.145157938287E+01 6.448897073721E+01 1.639370794683E+01 1.496924251958E+02
 -2.025325138511E+01 -3.363894514887E+01 5.254153706596E-02 3.754845169960E+01 -3.599088242591E-01 -1.534115176025E-01 1.696637808279E-01 5.705455064582E-02 7.220645167924E-02 -4.920605905022E-01 -1.889264372623E-01 3.064226859124E-02 -1.777076637138E-02 7.028275190801E-01 -1.471318076115E-01 -1.239198541400E+03 -4.278664929028E+02 -9.093846038888E+00 4.020822120307E-02 1.944128000434E-01 6.589763379044E-02 2.333431182495E-01 -1.921414061250E-01 -2.784043720476E-02 4.842799747140E-01 -1.753832344070E-01 4.031439967289E-02 5.087681316107E-01 5.181071108774E-02 5.928312771468E-03 -2.048321821312E+01 3.524076460634E+01 -9.627486607888E-02 -1.177663519661E+00 -2.351433422095E+00 -9.450168893835E-03 2.776409520877E+03
 3.575708178869E+01 6.013053332124E+01 2.647317970212E-01 -6.727340084080E+01 6.946349225573E-01 -6.639698501589E-01 -8.401960103503E-02 8.307193150563E-02 -2.016684752318E-02 2.499018406957E-01 1.232336721478E-01 -1.400817596032E-02 5.611941157846E-02 -3.864540647312E-01 5.032456903101E-02 -4.323049181637E+02 -7.139130920400E+02 -1.791920181067E+00 8.095056647085E-02 -9.995060901433E-02 -4.874101089577E-02 -1.113146432909E-01 1.181805042037E-01 -8.806931938300E-02 -4.761198515294E-01 -1.729099779051E-01 4.295726288323E-02 -2.769195531832E-01 6.231909790996E-02 -1.381428736982E-03 -3.149970468871E+01 5.597882719871E+01 -2.189794494933E-01 4.855327557612E-01 9.333914990178E-01 8.272563276810E-02 1.211236336130E+01 2.795984293575E+03
 -2.011370755816E-01 -7.416293209086E-02 9.426924987383E+00 4.179781799067E-01 4.534353520342E-02 9.121357733619E+00 2.866153092281E-02 1.053489842564E-01 -1.058312615852E-01 9.859900728489E-02 -4.608461615622E-02 4.177136620507E-02 6.755655581666E-02 3.091796731869E-02 6.682927493637E-02 -8.945877590568E+00 -2.307726243556E+00 -8.238513777937E+01 -1.077192383507E-01 -2.954381902371E-02 4.611665853966E+00 -2.103246675234E-02 1.231030420848E-01 4.428042254261E+00 -5.017731892468E-02 -1.403624336968E-01 -2.715214660344E-01 -1.200163678194E-02 6.884443718021E-02 1.655752551724E-02 -3.684070276135E-01 5.091349891137E-01 8.332249631342E+00 -2.025645927833E-02 -1.207935409696E-01 -2.016227749432E-01 2.456318746240E+01 -1.012754920250E+01 1.906581431612E+02
 -3.950706312627E-01 -2.651251192218E-01 1.405247216148E-01 -1.925064333287E+01 -3.095796101593E+01 -7.607732666072E-02 -1.313500950012E-02 6.738884142823E-01 -1.295835283343E-02 9.778076626552E-02 1.813493372284E-01 3.533145794201E-03 2.769959676239E-01 -3.058172355851E-01 -1.797835890374E-01 3.853887393947E-01 -1.022017824489E-01 -1.233484873257E-02 6.240147705647E-01 -5.327902591067E-02 -5.733409065646E-02 2.824640062159E-02 1.631252597940E-01 8.485337943851E-02 -1.524838831752E+00 -1.588959916138E+00 1.507555846247E-01 -1.323436915568E-01 5.790672393770E-01 2.545305785084E-02 3.739866284412E+01 -6.785021925325E+01 4.365266476558E-01 -2.362566955786E+01 3.915545012031E+01 4.060214577618E-01 3.935777299974E+01 6.639519090782E+01 4.906279508677E-01 2.802365580789E+03
 -7.173277458878E-03 1.441291718031E-01 9.920442743841E-03 3.388061207015E+01 5.577946185771E+01 1.741979821399E-01 1.017162263438E-01 -2.146714063562E-01 3.532529614449E-02 -3.304255825865E-01 -1.738941407782E-01 1.960145777213E-02 -1.142592159735E-01 5.041012586089E-01 -3.332091420638E-03 1.121761063158E-01 5.278392867478E-02 -5.474749683090E-02 -1.815172256658E-01 1.316513506002E-01 4.796711049915E-02 1.292962584901E-01 -1.752886470736E-01 1.219566683544E-02 8.133755640443E-01 4.680431436393E-01 -5.091108794122E-02 3.480380161761E-01 -1.738213246270E-01 -9.725716319103E-03 -7.530908750574E-01 1.306937477421E+00 9.209706405783E-02 -4.279793097606E+01 7.274014022487E+01 5.436208354337E-01 -4.111113683652E-01 -3.097079116888E-01 -1.872761903606E-01 -5.957052362371E+01 2.752485095292E+03
 -1.723792089602E-01 -1.720540154358E-01 1.330424735550E-01 -3.070471300379E-01 2.918906424663E-01 7.300335710197E+00 -2.611129319724E-01 2.396283914325E-01 1.674310394098E-02 5.094285851764E-01 4.787451850933E-01 2.835808459746E-03 3.876752068745E-01 -2.233720575629E-01 -7.341073763115E-01 3.291096287391E-01 1.491852591026E-01 -9.098775898477E+00 1.479225517523E-01 -3.254161339177E-01 2.571451609757E-01 -6.881339499390E-01 3.032517546109E-03 4.577942958600E+00 -4.147462126158E-01 -5.248417933973E-01 -2.812437559675E-01 -6.654985326634E-01 -3.251332694655E-02 3.031021600595E-01 8.801851780470E-01 -1.493939351674E+00 1.072026925186E+01 -2.216444843265E-01 2.707191395855E+00 1.215722612220E+01 7.553346790278E-01 1.655057265665E-01 8.627000160705E+00 1.908750418276E+01 6.172834683610E+00 1.867695154175E+02
 1.257232729217E+00 6.749503124951E-01 -4.799068831112E-01 9.767010049499E-01 -8.225756914108E-01 4.678798670153E-01 -6.403784012610E-02 -2.021946353854E+00 -4.895528074995E-03 -6.323432712868E-02 -4.458548784342E-01 -2.164092143711E-02 -7.966041498946E-01 5.825775496079E-01 5.331923573610E-01 -1.378699508186E+00 5.375835969682E-01 2.412890997613E-01 -1.836846070050E+00 8.718373099968E-02 1.168748065797E-01 -1.851490306479E-01 -3.792352443677E-01 -1.922254076408E-01 4.268054522845E+00 4.748219448255E+00 -4.365300759929E-01 1.441820347534E-01 -1.728188606786E+00 -6.583847635756E-02 -1.271158742400E+03 4.472433330107E+02 -2.348831870218E+01 -5.096016276374E+02 -1.773082746533E+01 -1.367638678285E+01 1.328805610165E+00 1.288436423262E-01 1.415436720020E-01 4.859945601212E+00 -9.384384522602E-01 -3.189240479844E-01 2.558354537601E+03
 1.345290849917E+00 1.891114649645E-01 -1.100220891673E+00 9.672454016987E-01 -5.655287227973E-01 7.572197459553E-01 -4.415842278122E-01 -1.348319271642E+00 -3.407325673714E-01 1.129365335505E+00 1.798648452462E-01 6.770514132308E-02 -3.873496317581E-01 -1.237420645631E+00 7.169328257528E-01 -1.660330065356E+00 3.499170430951E-01 2.898294479508E-01 -1.216561883111E+00 -3.901960973805E-01 1.316451647922E-01 -6.749071993776E-01 2.386643054227E-01 -2.142302234338E-01 1.500505123858E+00 3.233356906912E+00 -8.590583181533E-01 -1.109353368964E+00 -1.159677033944E+00 2.578149080624E-02 4.795343968601E+02 -7.479624522803E+02 6.030637558122E+00 -4.504477508106E+01 -1.640694048123E+03 -1.114997692729E+01 1.831673602005E+00 -2.532379859117E-01 5.401568254255E-01 3.885674583633E+00 -2.983722795036E-01 -8.241633710819E-01 -1.431315413999E+02 2.750728978012E+03
 3.307847926702E-01 -4.264484430657E-02 4.998979038286E-01 2.332240425729E-01 -2.084525578130E-01 -6.134771440296E-01 -3.002835217027E-02 -2.884485185349E-01 2.004016292370E-01 2.248575993491E-01 -1.171603441613E-02 -5.984469860009E-02 1.144487501328E-01 -1.711089746139E-02 -8.546924905114E-01 -3.879967769972E-01 1.838315367382E-01 -3.471253765542E-01 -2.912958586622E-01 -2.000451781857E-02 2.169517844167E-01 -1.670562225396E-01 1.012044091955E-01 3.605956638591E-01 5.096147950864E-01 5.323126217283E-01 1.142772882121E-03 -1.946485474454E-01 -1.368847300530E-01 2.867002711207E-01 -2.489477678190E+01 5.364889253237E+00 -8.630272901169E+01 -1.374650413195E+01 -1.231063644963E+01 -7.866009564624E+01 5.183651078475E-01 -1.522212077903E-01 4.559569622150E+00 1.106545375393E+00 2.013639562881E-02 -9.591962366471E+00 8.604562270659E+01 2.440579966784E+01 2.410095969814E+02
 3.277104476599E-01 -3.058218492159E-01 -2.100011198966E-01 1.432230581794E-01 1.278038165765E-01 7.967513386262E-02 -3.138135372498E-01 1.634422862464E-01 -1.133150899809E-01 9.628135368064E-01 4.203386643360E-01 -9.902496102908E-03 1.650710410700E-01 -1.432561169976E+00 1.443934669879E-01 -1.989011373220E+01 3.468302531675E+01 -3.972613062443E-01 1.696222265478E-01 -3.698646901535E-01 -9.892414007941E-02 -4.173407894310E-01 4.238448032946E-01 -1.097487960351E-01 -1.516225174026E+00 -3.253047317578E-01 3.546617587244E-02 -1.014481793998E+00 1.494199953813E-01 3.169251856561E-02 -1.199987576414E+03 -4.196359048868E+02 -1.523022723728E+01 2.043358429565E+00 3.915103997353E+00 2.442075488766E-01 -1.180262790384E+03 4.278267596382E+02 -1.308964806943E+01 -4.664089398425E+02 -1.619117978462E+01 -4.355591993756E+00 -2.079429456612E+01 -3.616899871681E+01 -7.040286185327E-01 2.735101131791E+03
 -6.658175141154E-02 -4.078226590191E-02 -2.887701742517E-02 -3.273011947868E-02 2.920778406196E-02 2.876862525728E-01 2.857759019853E-03 1.238497179180E-01 -2.401532089248E-02 2.303599402868E-02 2.985375799444E-02 -8.644831158296E-03 5.618578211742E-02 -4.911786987765E-02 -5.158703777151E-02 -3.256879558872E+01 5.814854413735E+01 -5.744475352705E-01 1.108943236898E-01 -9.938508369450E-03 -1.203475087966E-02 5.595376477748E-03 3.771757285671E-02 8.917285335634E-02 -2.761553203465E-01 -2.973724118779E-01 -2.924118662571E-02 -1.244445104311E-02 1.160124850785E-01 9.429138713749E-03 -4.229844403770E+02 -7.006412255642E+02 -4.623472475923E+00 2.887070334082E-02 -2.321228352407E-01 -4.594006383712E-01 4.290691026252E+02 -7.179629454399E+02 5.928885803957E+00 -6.043095912265E+00 -1.475120065159E+03 -3.005097616026E+00 3.672949644098E+01 6.116986393711E+01 4.410509444504E-01 -4.329170755989E+00 2.775645169166E+03
 -1.202942430079E-01 2.049184799416E-01 4.275432106098E+00 1.299844232594E-01 -4.057397475025E-01 -8.055734838735E+00 6.175727948311E-02 5.382350338060E-03 -8.260142050443E-02 -2.368928731418E-01 -1.878425890428E-01 1.211248713579E-02 -2.906247080371E-01 2.027935369270E-01 9.345249934133E-01 -3.064149388589E-01 2.821458968059E-02 9.292173688665E+00 -1.480638134904E-01 4.446508583827E-02 -3.036301653498E-01 2.002756145272E-01 -6.455045404769E-02 -3.970676184311E-01 2.640858284734E-01 2.754512471406E-01 2.555832969165E-01 2.702915088911E-01 -1.452469486386E-01 -3.491107385359E-01 -1.483549413783E+01 -3.476235473122E+00 -8.106401001755E+01 -6.437250695250E-01 -4.518911203102E-01 -9.917706942926E+00 -1.343642178320E+01 6.224179969847E+00 -8.035403241219E+01 -4.437458718660E+00 -3.604833041029E+00 -8.303451205335E+01 -3.572942137624E-01 -6.010992800240E-01 9.396331822200E+00 3.177101060635E+01 2.055221475985E+00 1.899782151001E+02
 3.837979023417E-01 2.105979868357E-01 -5.757023749945E-02 3.038298429657E-01 -2.639984329826E-01 1.159871319856E-01 -1.542581844999E-02 -6.074137864413E-01 3.334375482585E-02 -1.831064860933E-02 -1.401325613041E-01 -1.216898122813E-02 -2.392142886158E-01 1.900212190786E-01 1.134497338155E-01 -4.261066110546E-01 1.515249933216E-01 7.533890138552E-02 -5.675798664955E-01 2.336295020634E-02 3.281210826009E-02 -6.213901832015E-02 -1.132305884426E-01 -4.687543926928E-02 1.304303544933E+00 1.436950179745E+00 -6.852761296785E-02 4.326921989313E-02 -5.243642234759E-01 -1.164847828147E-02 9.019138887947E-01 8.810423751305E-02 -4.576566768812E-02 -1.446073825587E+03 -5.075957932441E+02 -2.793031444325E+01 4.122748436148E-01 6.356305899609E-02 -4.061170762967E-03 -1.322949494582E+03 4.539559110022E+02 -8.313378315671E+00 4.590390608198E+01 -4.952452422874E+00 -1.530088166297E-01 4.015893709434E+01 -1.008519710655E-02 8.617793100602E-01 3.057713260963E+03
 3.647757014856E-02 -2.586537391820E-01 -1.548728471746E-01 -4.831374292133E-02 1.335890242361E-01 9.578635429155E-02 -1.892119545374E-01 3.392015715560E-01 -1.125248671445E-01 5.883333402250E-01 3.107523133622E-01 2.673674752940E-02 1.922717854819E-01 -9.298039873382E-01 9.714171735571E-02 -1.101775378032E-01 -9.404890147508E-02 3.650322175227E-02 3.182109609953E-01 -2.364142769120E-01 -4.621927338333E-02 -2.340204839537E-01 3.017170971308E-01 -5.767194640465E-02 -1.410543074303E+00 -7.549843361830E-01 -2.611809043578E-02 -6.330553498751E-01 2.840412348967E-01 2.318227607341E-02 9.993206293765E-01 -1.657776132087E+00 1.168530176899E-01 -5.100620035741E+02 -8.434947385598E+02 -1.379481950176E+01 2.431273164362E-01 -1.931845106217E-01 1.298568674323E-02 4.407791473935E+02 -7.500394924731E+02 -9.936113209450E-01 -8.637720172085E+01 2.605126549331E+00 -1.469375639383E+00 7.276434974146E+01 -5.767683198603E-01 6.396514013047E-01 4.705212980876E+01 2.545949593908E+03
 -2.042180182710E-01 2.646241157559E-01 -2.125356189454E-01 4.253011311856E-02 1.942785487108E-02 4.968252874001E+00 1.067496267331E-01 2.189537821865E-02 -5.309992400722E-02 -3.507976270987E-01 -1.319915897852E-01 2.378983232609E-02 -1.201088439506E-01 5.672312711818E-01 3.553906351977E-01 1.695244511107E-01 -2.071558326405E-01 1.390517623109E-01 -9.179314827914E-02 6.324537322531E-02 -4.838270452365E-02 1.028445071781E-01 -1.899164132266E-01 -1.479531041311E-01 5.527135576900E-01 9.984405554772E-02 -6.044225200558E-02 3.851256496078E-01 -1.104500956817E-01 -1.378581990521E-01 -1.840473940858E-02 9.009369935135E-01 -1.100879215276E+01 -2.701704817036E+01 -1.396734849761E+01 -6.957629320228E+01 -6.275542116364E-01 2.256263764082E-01 4.741013035417E+00 -9.217933903188E+00 -1.317696696711E+00 -7.857484697135E+01 2.539823500172E-01 5.326602278500E-01 1.356510297530E+01 1.143079543577E+00 4.800501010360E-01 9.940767809368E+00 3.966909387994E+01 2.619191465484E+01 1.520501191050E+02
 2.261650382188E-01 7.948189044876E-02 -1.278637696719E-01 -1.239496988928E+03 4.538050823203E+02 -7.748668930907E+00 -4.500248398674E-02 -2.893332743076E-01 -1.457231447021E-02 9.851343092121E-02 -2.109756313118E-02 3.862461310894E-02 -1.096928572130E-01 -6.987585067824E-02 1.627270786923E-01 4.062131361640E+01 -3.645377534762E-01 1.964439680856E-01 -2.749949081746E-01 -3.158773954604E-02 2.757168811003E-02 -2.030306798337E+01 3.650195132860E+01 -1.103947861385E-01 4.966813811261E-01 7.057696108445E-01 -6.264347729891E-02 -1.014036851840E-01 -2.614731135466E-01 -8.935566107082E-03 7.178185713613E-01 -2.833518348261E-01 -7.694353801327E-02 4.896077178257E-01 1.185802291457E+00 -5.669431568082E-02 2.578037861606E-01 7.011013309037E-03 -9.910728461248E-02 -1.128078368866E+03 -3.826377838520E+02 -7.609416478568E+00 -2.372404691055E+00 -2.106584144635E+00 -5.056422678798E-01 3.535609796857E+01 -1.041778490213E-01 4.465365761634E-01 -1.882505967224E+01 -3.284023560393E+01 -1.502322803203E-01 2.735111485965E+03
 2.152237302402E-01 -5.133098151418E-02 -4.235713162955E-02 4.644361380761E+02 -7.542748837318E+02 3.733830162799E+00 -1.117415585361E-01 -1.218394373442E-01 -3.138969276856E-02 3.147327189844E-01 1.032492831358E-01 -6.172900497619E-03 -1.278732711870E-02 -4.109570301135E-01 4.667304994624E-02 6.706607712108E+01 -5.961304551275E-01 5.122877271710E-01 -1.107167378864E-01 -1.154852975610E-01 -1.452287261696E-02 -3.349561895742E+01 6.031884527907E+01 -3.836377159052E-01 -1.176380507896E-01 3.049157998714E-01 -2.980261876365E-02 -3.185988245049E-01 -1.053428663653E-01 4.635392035922E-04 9.796845906101E-01 -8.861940496078E-01 2.769200755147E-02 8.044487545428E-01 1.707320043005E+00 3.382285126329E-03 3.890433248710E-01 -9.939516029232E-02 1.249494218026E-01 -3.827342508870E+02 -6.616172748223E+02 -3.814558955130E+00 -1.517167201146E+00 -1.699459488627E+00 -3.482020068053E-01 -6.419494936336E+01 4.976661509386E-01 -2.722413177133E-03 3.196412030103E+01 5.895008393576E+01 6.304413810610E-01 -2.276646926306E+01 2.816983421293E+03
 1.721173726124E-01 -2.801682096451E-01 5.174084486294E+00 -7.702791326324E+00 3.600247186194E+00 -8.382794709846E+01 1.585394438049E-02 -1.806140273973E-01 1.859388949154E-01 -2.777246364749E-01 -1.130288084073E-01 4.655123565664E+00 4.044723425008E-02 1.410994469655E-01 -5.898883120158E-01 -4.970905602548E-01 3.373100880628E-01 8.539232752537E+00 3.011807738390E-02 2.676195020199E-01 9.630613641928E-02 1.824301913760E-01 -2.639715274769E-02 9.959093216323E+00 2.427719144332E-01 1.109688707151E-01 1.583836210202E-01 9.519576139054E-02 -3.373152308258E-02 1.574196959261E-01 -6.394319805133E-01 -6.645333231843E-02 4.629735686740E+00 3.440949177259E-01 -4.374271478362E-01 5.136937477768E+00 7.021329385170E-01 3.151184899052E-01 -8.912143202606E+00 -7.751687558665E+00 -2.156692513060E+00 -7.950098345100E+01 -6.670322074465E-01 5.825583354074E-02 9.629743644280E-01 3.043977548417E-01 -5.364944472797E-01 7.050853509353E+00 -7.407429985519E-01 -3.605400500800E-01 9.768786730629E+00 1.791921439591E+01 -4.863583019918E+00 1.876462741865E+02