#BIOSYM hessian 1
@Type: Hessian Update
@Units
 distance: 	A
 energy: 	Kcal/Mol
#header
@natom 67

#label
C1      C2      C3      C4      C5      C6      C7      C8      C9      C10     C11     C12     C13     C14     C15     C16     C17     C18     C19     C20     C21     C22     C23     H24     C25     C26     C27     C28     C29     C30     C31     C32     C33     C34     C35     C36     C37     C38     C39     C40     C41     C42     C43     C44     C45     C46     C47     C48     C49     H50     H51     H52     H53     H54     H55     H56     H57     H58     H59     O60     H61     H62     H63     H64     H65     H66     H67

#element
C  C  C  C  C  C  C  C  C  C  C  C  C  C  C  C  C  C  C  C  C  C  C  H  C  C  C  C  C  C  C  C  C  C  C  C  C  C  C  C  C  C  C  C  C  C  C  C  C  H  H  H  H  H  H  H  H  H  H  O  H  H  H  H  H  H  H 

#matrix
201
 2.784277535007E+03
 -2.276238997233E+01 2.822670484376E+03
 0.000000000000E+00 0.000000000000E+00 0.000000000000E+00
 3.997380647109E+01 6.746795283923E+01 0.000000000000E+00 2.787194639290E+03
 -1.737438469804E-01 -8.025665628744E-01 0.000000000000E+00 -1.978794444635E+01 2.776535672198E+03
 0.000000000000E+00 0.000000000000E+00 0.000000000000E+00 0.000000000000E+00 0.000000000000E+00 0.000000000000E+00
 -1.973766569079E+01 3.500230480421E+01 0.000000000000E+00 4.706615201028E-02 3.589470299367E-02 0.000000000000E+00 2.810859198208E+03
 -3.348543996426E+01 5.933776390611E+01 0.000000000000E+00 1.177313214242E-02 -3.469398969353E-02 0.000000000000E+00 -3.138432940764E+01 2.817775388631E+03
 0.000000000000E+00 0.000000000000E+00 0.000000000000E+00 0.000000000000E+00 0.000000000000E+00 0.000000000000E+00 0.000000000000E+00 0.000000000000E+00 0.000000000000E+00
 3.803962655751E+01 -6.831066398353E+01 0.000000000000E+00 -2.035857500094E+01 3.676012023061E+01 0.000000000000E+00 4.234961344957E+01 7.197013012148E+01 0.000000000000E+00 2.776280895481E+03
 2.270575660360E-01 6.316134034099E-01 0.000000000000E+00 -3.186930964994E+01 5.723565588029E+01 0.000000000000E+00 -8.224692923421E-01 -1.276996399558E+00 0.000000000000E+00 -1.119209943852E+01 2.818908463061E+03
 0.000000000000E+00 0.000000000000E+00 0.000000000000E+00 0.000000000000E+00 0.000000000000E+00 0.000000000000E+00 0.000000000000E+00 0.000000000000E+00 0.000000000000E+00 0.000000000000E+00 0.000000000000E+00 0.000000000000E+00
 -3.136147356592E-02 -3.694023179581E-02 0.000000000000E+00 -2.960704921385E-01 2.978718480092E-01 0.000000000000E+00 4.163353308917E+01 -7.368385483175E+01 0.000000000000E+00 -2.163285321577E+01 3.880386242861E+01 0.000000000000E+00 2.633835016668E+03
 1.224690666241E-01 -1.762157693996E-02 0.000000000000E+00 9.420627988871E-02 -3.340906916345E-01 0.000000000000E+00 1.442529991805E-01 -2.932976698212E-01 0.000000000000E+00 -3.437503298444E+01 6.213023531200E+01 0.000000000000E+00 -2.208344946422E+02 2.904310985931E+03
 0.000000000000E+00 0.000000000000E+00 0.000000000000E+00 0.000000000000E+00 0.000000000000E+00 0.000000000000E+00 0.000000000000E+00 0.000000000000E+00 0.000000000000E+00 0.000000000000E+00 0.000000000000E+00 0.000000000000E+00 0.000000000000E+00 0.000000000000E+00 0.000000000000E+00
 -1.227568945488E+03 4.490529663876E+02 0.000000000000E+00 -4.677175896757E+02 -1.280345949314E+01 0.000000000000E+00 2.290996307934E-02 -6.951248122045E-03 0.000000000000E+00 -5.661448768237E-02 -1.033298534942E-01 0.000000000000E+00 -9.437551418964E-02 3.039657326464E-02 0.000000000000E+00 2.823022335392E+03
 4.440318137494E+02 -7.453533460674E+02 0.000000000000E+00 -1.181204868652E+01 -1.438762322417E+03 0.000000000000E+00 2.996604440235E-02 2.560895096093E-02 0.000000000000E+00 -1.048614024464E+00 1.078023541008E+00 0.000000000000E+00 -7.001659864315E-02 1.674965342527E-01 0.000000000000E+00 -1.714357412863E+00 2.789141693945E+03
 0.000000000000E+00 0.000000000000E+00 0.000000000000E+00 0.000000000000E+00 0.000000000000E+00 0.000000000000E+00 0.000000000000E+00 0.000000000000E+00 0.000000000000E+00 0.000000000000E+00 0.000000000000E+00 0.000000000000E+00 0.000000000000E+00 0.000000000000E+00 0.000000000000E+00 0.000000000000E+00 0.000000000000E+00 0.000000000000E+00
 -1.196165485447E+03 -4.119221075749E+02 0.000000000000E+00 1.680386902826E-01 -2.877743136261E-01 0.000000000000E+00 -1.257582611359E+03 4.497377744734E+02 0.000000000000E+00 -4.846102806319E+02 -1.469623478117E+01 0.000000000000E+00 -1.028793148672E-01 9.182086718305E-02 0.000000000000E+00 -1.961383211324E+01 -3.289666824036E+01 0.000000000000E+00 2.817672620169E+03
 -4.117315505739E+02 -7.006829780152E+02 0.000000000000E+00 -4.442181930965E-01 3.561906324667E-01 0.000000000000E+00 4.513005417283E+02 -7.503587478951E+02 0.000000000000E+00 -1.892752926219E+01 -1.509125442625E+03 0.000000000000E+00 1.503295598162E-01 8.736201373508E-02 0.000000000000E+00 3.475224257392E+01 5.806525524515E+01 0.000000000000E+00 -2.479552312293E+01 2.843764671790E+03
 0.000000000000E+00 0.000000000000E+00 0.000000000000E+00 0.000000000000E+00 0.000000000000E+00 0.000000000000E+00 0.000000000000E+00 0.000000000000E+00 0.000000000000E+00 0.000000000000E+00 0.000000000000E+00 0.000000000000E+00 0.000000000000E+00 0.000000000000E+00 0.000000000000E+00 0.000000000000E+00 0.000000000000E+00 0.000000000000E+00 0.000000000000E+00 0.000000000000E+00 0.000000000000E+00
 4.713804882351E-02 5.887914648453E-02 0.000000000000E+00 -1.219600576824E+03 -4.202778746305E+02 0.000000000000E+00 6.297451820187E-02 3.876367435637E-02 0.000000000000E+00 -1.215478044245E+03 4.432469722017E+02 0.000000000000E+00 -1.596386450022E-01 1.583980163902E-01 0.000000000000E+00 3.749738126635E+01 -6.746260802162E-01 0.000000000000E+00 4.136967527571E+01 -8.993073243665E-01 0.000000000000E+00 2.794323600880E+03
 -3.986948627535E-01 3.965878493573E-02 0.000000000000E+00 -4.223939988235E+02 -7.031150862109E+02 0.000000000000E+00 -1.581243737467E-04 1.241961947280E-01 0.000000000000E+00 4.369087069529E+02 -7.323673485410E+02 0.000000000000E+00 1.183749173136E-02 5.812962655339E-01 0.000000000000E+00 -6.703666815339E+01 2.146101869192E-02 0.000000000000E+00 6.949760096228E+01 -1.214282323597E+00 0.000000000000E+00 1.044603364626E+01 2.789905348192E+03
 0.000000000000E+00 0.000000000000E+00 0.000000000000E+00 0.000000000000E+00 0.000000000000E+00 0.000000000000E+00 0.000000000000E+00 0.000000000000E+00 0.000000000000E+00 0.000000000000E+00 0.000000000000E+00 0.000000000000E+00 0.000000000000E+00 0.000000000000E+00 0.000000000000E+00 0.000000000000E+00 0.000000000000E+00 0.000000000000E+00 0.000000000000E+00 0.000000000000E+00 0.000000000000E+00 0.000000000000E+00 0.000000000000E+00 0.000000000000E+00
 4.735479230484E-02 -5.764313490561E-03 0.000000000000E+00 9.016009183330E-02 -9.052987946756E-02 0.000000000000E+00 -1.200070240801E+03 -4.057314330286E+02 0.000000000000E+00 3.440909324787E-01 -4.147366866858E-01 0.000000000000E+00 -5.229206098996E+02 3.390214751784E+00 0.000000000000E+00 7.014275438400E-03 6.060642636713E-02 0.000000000000E+00 -1.976253498095E+01 -3.358915743162E+01 0.000000000000E+00 1.377972408384E-01 9.192913724267E-02 0.000000000000E+00 2.774627571335E+03
 -2.197852530488E-01 6.363297576929E-02 0.000000000000E+00 -2.863294533032E-01 5.534010739241E-01 0.000000000000E+00 -4.146464177700E+02 -7.006689098877E+02 0.000000000000E+00 -1.346699602323E+00 1.567401915956E+00 0.000000000000E+00 5.131419096435E+00 -1.638773604407E+03 0.000000000000E+00 -6.580206279630E-02 -2.460414519837E-01 0.000000000000E+00 3.484109628770E+01 5.914917168813E+01 0.000000000000E+00 -4.323041485568E-01 -6.901420178310E-01 0.000000000000E+00 -2.924148672893E+01 2.961481300767E+03
 0.000000000000E+00 0.000000000000E+00 0.000000000000E+00 0.000000000000E+00 0.000000000000E+00 0.000000000000E+00 0.000000000000E+00 0.000000000000E+00 0.000000000000E+00 0.000000000000E+00 0.000000000000E+00 0.000000000000E+00 0.000000000000E+00 0.000000000000E+00 0.000000000000E+00 0.000000000000E+00 0.000000000000E+00 0.000000000000E+00 0.000000000000E+00 0.000000000000E+00 0.000000000000E+00 0.000000000000E+00 0.000000000000E+00 0.000000000000E+00 0.000000000000E+00 0.000000000000E+00 0.000000000000E+00
 3.834284886903E-01 -6.883166544491E-02 0.000000000000E+00 6.661014445036E-01 -9.380718698854E-01 0.000000000000E+00 -2.087358878605E-02 -1.768867199405E-01 0.000000000000E+00 -1.197866934457E+03 -4.188761876416E+02 0.000000000000E+00 -1.330147317148E+03 4.962598961908E+02 0.000000000000E+00 1.222649892377E-01 5.631136005306E-01 0.000000000000E+00 3.872470866268E+01 6.489036018347E-02 0.000000000000E+00 -1.841963780185E+01 -3.102248725546E+01 0.000000000000E+00 4.961048972368E+01 8.534280759052E-01 0.000000000000E+00 2.881536313686E+03
 3.581963809896E-01 -1.672673395575E-01 0.000000000000E+00 1.948159582525E-01 -4.733937809457E-01 0.000000000000E+00 -1.417441677710E-01 -1.984984274527E-01 0.000000000000E+00 -4.034905748843E+02 -7.035077789192E+02 0.000000000000E+00 4.950452853973E+02 -8.260811834028E+02 0.000000000000E+00 -5.731727046552E-02 4.875103764224E-01 0.000000000000E+00 -6.868219500705E+01 1.811052652238E+00 0.000000000000E+00 3.531305809131E+01 5.914357569592E+01 0.000000000000E+00 8.099638628452E+01 1.176867919547E+00 0.000000000000E+00 -9.697902573229E+01 2.848720065834E+03
 0.000000000000E+00 0.000000000000E+00 0.000000000000E+00 0.000000000000E+00 0.000000000000E+00 0.000000000000E+00 0.000000000000E+00 0.000000000000E+00 0.000000000000E+00 0.000000000000E+00 0.000000000000E+00 0.000000000000E+00 0.000000000000E+00 0.000000000000E+00 0.000000000000E+00 0.000000000000E+00 0.000000000000E+00 0.000000000000E+00 0.000000000000E+00 0.000000000000E+00 0.000000000000E+00 0.000000000000E+00 0.000000000000E+00 0.000000000000E+00 0.000000000000E+00 0.000000000000E+00 0.000000000000E+00 0.000000000000E+00 0.000000000000E+00 0.000000000000E+00
 -1.738920237596E-01 5.345076512555E-02 0.000000000000E+00 -2.256908179976E-01 4.426885207929E-01 0.000000000000E+00 1.576644254898E-02 6.609344495966E-02 0.000000000000E+00 -1.200789241522E+00 1.413641076358E+00 0.000000000000E+00 -3.050294944969E-03 1.467325780048E-01 0.000000000000E+00 -2.655232033098E-02 -2.450815561630E-01 0.000000000000E+00 -9.319538248066E-02 -2.708821321729E-01 0.000000000000E+00 -3.375521911095E-01 -5.461147742943E-01 0.000000000000E+00 7.289921717994E-02 -2.814455977113E-01 0.000000000000E+00 6.590427582006E-01 7.077290626133E-01 0.000000000000E+00 2.809606568410E+03
 5.902047472249E-02 -6.026116651138E-03 0.000000000000E+00 7.080235331995E-02 -5.630582876173E-02 0.000000000000E+00 -2.040262284647E-02 -3.295659083395E-02 0.000000000000E+00 4.861181593870E-01 -5.944079176794E-01 0.000000000000E+00 -3.098094242935E-02 -6.303225349985E-02 0.000000000000E+00 1.916499309061E-02 3.788452661317E-02 0.000000000000E+00 6.842184542733E-02 9.533990003806E-02 0.000000000000E+00 1.373619806944E-01 2.033777390937E-01 0.000000000000E+00 -3.596126660709E-02 9.619910894561E-02 0.000000000000E+00 -2.591445403085E-01 -3.209677689802E-01 0.000000000000E+00 2.356635091328E+00 2.800257349354E+03
 0.000000000000E+00 0.000000000000E+00 0.000000000000E+00 0.000000000000E+00 0.000000000000E+00 0.000000000000E+00 0.000000000000E+00 0.000000000000E+00 0.000000000000E+00 0.000000000000E+00 0.000000000000E+00 0.000000000000E+00 0.000000000000E+00 0.000000000000E+00 0.000000000000E+00 0.000000000000E+00 0.000000000000E+00 0.000000000000E+00 0.000000000000E+00 0.000000000000E+00 0.000000000000E+00 0.000000000000E+00 0.000000000000E+00 0.000000000000E+00 0.000000000000E+00 0.000000000000E+00 0.000000000000E+00 0.000000000000E+00 0.000000000000E+00 0.000000000000E+00 0.000000000000E+00 0.000000000000E+00 0.000000000000E+00
 1.141511908823E-01 -3.907608331307E-02 0.000000000000E+00 1.127049729406E-01 -2.609427824157E-01 0.000000000000E+00 -2.721032520458E-02 -4.452304237589E-02 0.000000000000E+00 8.700512649738E-01 -1.053148974751E+00 0.000000000000E+00 4.696206510796E-02 -9.590956697103E-02 0.000000000000E+00 -4.487618614009E-03 1.589356057414E-01 0.000000000000E+00 6.147978811547E-02 2.314345560786E-01 0.000000000000E+00 2.923969154041E-01 3.027487811933E-01 0.000000000000E+00 -6.255615055048E-02 2.225415592916E-01 0.000000000000E+00 -5.329351221099E-01 -4.928723105493E-01 0.000000000000E+00 4.202941810942E+01 7.141640183155E+01 0.000000000000E+00 2.783633327984E+03
 2.013958913692E-01 -6.643068807698E-02 0.000000000000E+00 1.941251362227E-01 -3.832896954070E-01 0.000000000000E+00 -5.849263669858E-02 -8.815332407423E-02 0.000000000000E+00 1.598820590522E+00 -1.860542137311E+00 0.000000000000E+00 5.732843938785E-02 -2.114756363534E-01 0.000000000000E+00 2.977776058371E-03 2.732421597002E-01 0.000000000000E+00 1.170528073357E-01 3.934963291113E-01 0.000000000000E+00 4.158673428422E-01 7.197279170217E-01 0.000000000000E+00 -1.101976939611E-01 4.042750943159E-01 0.000000000000E+00 -9.517833061030E-01 -9.064301905932E-01 0.000000000000E+00 -8.255933161926E-01 -2.159918995817E+00 0.000000000000E+00 2.769523286073E+02 2.854173203486E+03
 0.000000000000E+00 0.000000000000E+00 0.000000000000E+00 0.000000000000E+00 0.000000000000E+00 0.000000000000E+00 0.000000000000E+00 0.000000000000E+00 0.000000000000E+00 0.000000000000E+00 0.000000000000E+00 0.000000000000E+00 0.000000000000E+00 0.000000000000E+00 0.000000000000E+00 0.000000000000E+00 0.000000000000E+00 0.000000000000E+00 0.000000000000E+00 0.000000000000E+00 0.000000000000E+00 0.000000000000E+00 0.000000000000E+00 0.000000000000E+00 0.000000000000E+00 0.000000000000E+00 0.000000000000E+00 0.000000000000E+00 0.000000000000E+00 0.000000000000E+00 0.000000000000E+00 0.000000000000E+00 0.000000000000E+00 0.000000000000E+00 0.000000000000E+00 0.000000000000E+00
 -2.031601852835E+01 -3.412578942473E+01 0.000000000000E+00 3.847116809503E+01 -7.854647550158E-01 0.000000000000E+00 -3.145735974972E-03 -3.091795675007E-02 0.000000000000E+00 4.191358022016E-01 -4.933045784090E-01 0.000000000000E+00 -2.043638265957E-02 -5.650756364452E-02 0.000000000000E+00 -1.247553410417E+03 -4.314031702127E+02 0.000000000000E+00 6.150836275047E-02 9.800051182170E-02 0.000000000000E+00 7.093546599703E-02 2.661492303562E-01 0.000000000000E+00 -2.164842808034E-02 8.433041700086E-02 0.000000000000E+00 -2.175937875277E-01 -2.618564557396E-01 0.000000000000E+00 -1.934730608046E+01 3.441035093827E+01 0.000000000000E+00 -6.523497499813E-02 -1.406704878880E-01 0.000000000000E+00 2.777161775015E+03
 3.627553978744E+01 6.057691297234E+01 0.000000000000E+00 -6.822890081786E+01 6.053529952374E-01 0.000000000000E+00 -2.005710519941E-02 -3.698227736197E-02 0.000000000000E+00 6.964606961707E-01 -7.367796191323E-01 0.000000000000E+00 8.639542934344E-02 -1.113440547860E-01 0.000000000000E+00 -4.359383333416E+02 -7.211484837204E+02 0.000000000000E+00 3.072654530889E-06 2.222264822921E-01 0.000000000000E+00 9.705507904669E-02 4.483863101288E-01 0.000000000000E+00 -3.914196341391E-02 2.170709723487E-01 0.000000000000E+00 -4.475852451772E-01 -3.413546643493E-01 0.000000000000E+00 -3.210046403118E+01 5.705639631020E+01 0.000000000000E+00 -9.043254316198E-02 -2.015682107440E-01 0.000000000000E+00 1.617336868311E+01 2.811413540996E+03
 0.000000000000E+00 0.000000000000E+00 0.000000000000E+00 0.000000000000E+00 0.000000000000E+00 0.000000000000E+00 0.000000000000E+00 0.000000000000E+00 0.000000000000E+00 0.000000000000E+00 0.000000000000E+00 0.000000000000E+00 0.000000000000E+00 0.000000000000E+00 0.000000000000E+00 0.000000000000E+00 0.000000000000E+00 0.000000000000E+00 0.000000000000E+00 0.000000000000E+00 0.000000000000E+00 0.000000000000E+00 0.000000000000E+00 0.000000000000E+00 0.000000000000E+00 0.000000000000E+00 0.000000000000E+00 0.000000000000E+00 0.000000000000E+00 0.000000000000E+00 0.000000000000E+00 0.000000000000E+00 0.000000000000E+00 0.000000000000E+00 0.000000000000E+00 0.000000000000E+00 0.000000000000E+00 0.000000000000E+00 0.000000000000E+00
 1.981746207515E-01 -7.443762061488E-02 0.000000000000E+00 -1.883322122080E+01 -3.170376111517E+01 0.000000000000E+00 -9.590015977017E-02 -5.964035832021E-02 0.000000000000E+00 1.929763382695E+00 -2.006997168868E+00 0.000000000000E+00 1.567131281771E-01 -2.923195616335E-01 0.000000000000E+00 -6.450000312107E-02 4.787293376108E-01 0.000000000000E+00 5.992287350684E-02 4.072490883557E-01 0.000000000000E+00 2.810572775506E-01 1.210552948480E+00 0.000000000000E+00 -1.242510796700E-01 4.883990390595E-01 0.000000000000E+00 -1.188281839269E+00 -9.690485392606E-01 0.000000000000E+00 3.979733279380E+01 -6.973670812884E+01 0.000000000000E+00 -2.326237279986E+01 4.026860027757E+01 0.000000000000E+00 4.038986119312E+01 6.678387033352E+01 0.000000000000E+00 2.776994954277E+03
 5.278678645607E-01 -2.211421447460E-01 0.000000000000E+00 3.418918295238E+01 5.467425839834E+01 0.000000000000E+00 -1.527722052362E-01 -2.552955057774E-01 0.000000000000E+00 4.074229112692E+00 -4.724675738098E+00 0.000000000000E+00 1.203879218922E-01 -5.590949632601E-01 0.000000000000E+00 1.352251592416E-01 8.190148162016E-01 0.000000000000E+00 3.314236900318E-01 1.023998617263E+00 0.000000000000E+00 1.066056436041E+00 1.867633182178E+00 0.000000000000E+00 -2.671479931985E-01 1.058499984467E+00 0.000000000000E+00 -2.409191153181E+00 -2.329001067293E+00 0.000000000000E+00 7.067214588217E-01 -1.424769196926E-01 0.000000000000E+00 -4.227194653939E+01 7.302052394247E+01 0.000000000000E+00 -5.222724450006E-01 -9.534558827999E-01 0.000000000000E+00 -4.021937838450E+01 2.758052381656E+03
 0.000000000000E+00 0.000000000000E+00 0.000000000000E+00 0.000000000000E+00 0.000000000000E+00 0.000000000000E+00 0.000000000000E+00 0.000000000000E+00 0.000000000000E+00 0.000000000000E+00 0.000000000000E+00 0.000000000000E+00 0.000000000000E+00 0.000000000000E+00 0.000000000000E+00 0.000000000000E+00 0.000000000000E+00 0.000000000000E+00 0.000000000000E+00 0.000000000000E+00 0.000000000000E+00 0.000000000000E+00 0.000000000000E+00 0.000000000000E+00 0.000000000000E+00 0.000000000000E+00 0.000000000000E+00 0.000000000000E+00 0.000000000000E+00 0.000000000000E+00 0.000000000000E+00 0.000000000000E+00 0.000000000000E+00 0.000000000000E+00 0.000000000000E+00 0.000000000000E+00 0.000000000000E+00 0.000000000000E+00 0.000000000000E+00 0.000000000000E+00 0.000000000000E+00 0.000000000000E+00
 3.312946734394E-02 -1.801205239753E-02 0.000000000000E+00 5.695250874830E-02 -1.154807815082E-01 0.000000000000E+00 4.938352760497E-03 -9.048379651086E-03 0.000000000000E+00 1.867097296457E-01 -1.635894428773E-01 0.000000000000E+00 2.419458748125E-02 -4.020080881919E-02 0.000000000000E+00 -8.609511154300E-03 5.946359903086E-02 0.000000000000E+00 -1.376610295055E-02 5.216322702679E-02 0.000000000000E+00 -2.454521319683E-02 1.915962229063E-01 0.000000000000E+00 -4.247512996271E-03 6.450970576804E-02 0.000000000000E+00 -1.070992964988E-01 -7.580194402877E-02 0.000000000000E+00 -1.230540163003E+03 4.357186480849E+02 0.000000000000E+00 -5.069038306395E+02 -2.082157073792E+01 0.000000000000E+00 -1.955112786061E-02 -5.586511357404E-02 0.000000000000E+00 -1.435881663422E-01 -2.730183354747E-01 0.000000000000E+00 2.841410514056E+03
 -1.699109370666E-01 4.735757123313E-02 0.000000000000E+00 -2.733260621184E-01 3.981049009045E-01 0.000000000000E+00 2.532265269157E-02 6.673070861066E-02 0.000000000000E+00 -1.244198802532E+00 1.475579604753E+00 0.000000000000E+00 -3.683826527053E-02 1.499656438416E-01 0.000000000000E+00 8.957088902589E-03 -1.998839100062E-01 0.000000000000E+00 -9.023020000302E-02 -3.136821009731E-01 0.000000000000E+00 -3.263938174478E-01 -5.369856218019E-01 0.000000000000E+00 8.262397293457E-02 -3.068338287349E-01 0.000000000000E+00 7.260624264534E-01 7.207566209786E-01 0.000000000000E+00 4.375469987858E+02 -7.347180578679E+02 0.000000000000E+00 -3.050459320677E+01 -1.540055878714E+03 0.000000000000E+00 1.240173489102E-01 1.901855408688E-01 0.000000000000E+00 3.287408985700E-01 1.052389030426E+00 0.000000000000E+00 2.957423633798E+01 2.891022685879E+03
 0.000000000000E+00 0.000000000000E+00 0.000000000000E+00 0.000000000000E+00 0.000000000000E+00 0.000000000000E+00 0.000000000000E+00 0.000000000000E+00 0.000000000000E+00 0.000000000000E+00 0.000000000000E+00 0.000000000000E+00 0.000000000000E+00 0.000000000000E+00 0.000000000000E+00 0.000000000000E+00 0.000000000000E+00 0.000000000000E+00 0.000000000000E+00 0.000000000000E+00 0.000000000000E+00 0.000000000000E+00 0.000000000000E+00 0.000000000000E+00 0.000000000000E+00 0.000000000000E+00 0.000000000000E+00 0.000000000000E+00 0.000000000000E+00 0.000000000000E+00 0.000000000000E+00 0.000000000000E+00 0.000000000000E+00 0.000000000000E+00 0.000000000000E+00 0.000000000000E+00 0.000000000000E+00 0.000000000000E+00 0.000000000000E+00 0.000000000000E+00 0.000000000000E+00 0.000000000000E+00 0.000000000000E+00 0.000000000000E+00 0.000000000000E+00
 1.285614208519E-01 -3.527497557268E-02 0.000000000000E+00 9.957576620233E-02 -1.822037248983E-02 0.000000000000E+00 -3.573118580852E-02 -5.557082963947E-02 0.000000000000E+00 9.149392216479E-01 -1.071706885800E+00 0.000000000000E+00 2.223241192624E-02 -1.322506033998E-01 0.000000000000E+00 -1.973257136334E+01 3.519440470281E+01 0.000000000000E+00 6.483068029588E-02 2.274827004385E-01 0.000000000000E+00 2.484508911145E-01 4.049714228239E-01 0.000000000000E+00 -6.712888282796E-02 2.351243839362E-01 0.000000000000E+00 -5.396048700462E-01 -5.267996277175E-01 0.000000000000E+00 -1.225712173241E+03 -4.234921918846E+02 0.000000000000E+00 -1.398915063862E-01 -2.709053797028E-01 0.000000000000E+00 -1.172135221815E+03 4.266752950638E+02 0.000000000000E+00 -4.733700480836E+02 -1.388472760463E+01 0.000000000000E+00 -1.966337538079E+01 -3.340590671420E+01 0.000000000000E+00 2.755339472497E+03
 -1.634366184406E-01 7.024044740397E-02 0.000000000000E+00 -1.093504599013E-01 3.670294925446E-01 0.000000000000E+00 1.031333987046E-02 7.225295991931E-02 0.000000000000E+00 -9.621418115696E-01 1.124945538106E+00 0.000000000000E+00 -8.950819139927E-03 1.362661732064E-01 0.000000000000E+00 -3.273161710619E+01 5.791203208381E+01 0.000000000000E+00 -8.416593655100E-02 -2.604412747104E-01 0.000000000000E+00 -2.221466018338E-01 -4.977606911624E-01 0.000000000000E+00 5.447676901112E-02 -2.525056164217E-01 0.000000000000E+00 5.444322746826E-01 5.689285894824E-01 0.000000000000E+00 -4.267858989581E+02 -7.099085432451E+02 0.000000000000E+00 1.104820655918E-01 2.872987524046E-01 0.000000000000E+00 4.281963249229E+02 -7.218784981524E+02 0.000000000000E+00 -3.442996393673E+00 -1.499135842959E+03 0.000000000000E+00 3.492404676348E+01 5.930277857311E+01 0.000000000000E+00 2.619296708597E+00 2.813941120048E+03
 0.000000000000E+00 0.000000000000E+00 0.000000000000E+00 0.000000000000E+00 0.000000000000E+00 0.000000000000E+00 0.000000000000E+00 0.000000000000E+00 0.000000000000E+00 0.000000000000E+00 0.000000000000E+00 0.000000000000E+00 0.000000000000E+00 0.000000000000E+00 0.000000000000E+00 0.000000000000E+00 0.000000000000E+00 0.000000000000E+00 0.000000000000E+00 0.000000000000E+00 0.000000000000E+00 0.000000000000E+00 0.000000000000E+00 0.000000000000E+00 0.000000000000E+00 0.000000000000E+00 0.000000000000E+00 0.000000000000E+00 0.000000000000E+00 0.000000000000E+00 0.000000000000E+00 0.000000000000E+00 0.000000000000E+00 0.000000000000E+00 0.000000000000E+00 0.000000000000E+00 0.000000000000E+00 0.000000000000E+00 0.000000000000E+00 0.000000000000E+00 0.000000000000E+00 0.000000000000E+00 0.000000000000E+00 0.000000000000E+00 0.000000000000E+00 0.000000000000E+00 0.000000000000E+00 0.000000000000E+00
 -1.035294338178E-01 6.812879204011E-02 0.000000000000E+00 1.882825939475E-01 -1.556474659106E-01 0.000000000000E+00 1.520128680106E-01 5.423911930315E-02 0.000000000000E+00 -1.438980177455E+00 1.624547266462E+00 0.000000000000E+00 -2.887169799898E-01 2.055687847951E-01 0.000000000000E+00 1.030896686092E-01 -1.481397463235E-01 0.000000000000E+00 -2.235233107995E-02 -4.866566952143E-01 0.000000000000E+00 -3.252927426583E-01 -5.069029502273E-01 0.000000000000E+00 1.424431776637E-01 -4.707069799474E-01 0.000000000000E+00 1.131223364199E+00 6.669603105537E-01 0.000000000000E+00 -4.401611647379E-01 2.201287900222E-01 0.000000000000E+00 -1.508758494783E+03 -5.248674371694E+02 0.000000000000E+00 1.382258363044E-01 2.880452080196E-02 0.000000000000E+00 -1.277954185916E+03 4.390510540150E+02 0.000000000000E+00 4.841798413304E+01 -1.583426048703E+00 0.000000000000E+00 3.990868132886E+01 -5.061124475385E-01 0.000000000000E+00 3.076896045436E+03
 -2.468219679059E-01 8.328982817870E-02 0.000000000000E+00 -2.807599388029E-01 5.363198471180E-01 0.000000000000E+00 5.026696647025E-02 1.062541895539E-01 0.000000000000E+00 -1.862529691232E+00 2.230421060383E+00 0.000000000000E+00 -3.256854147583E-02 2.177644747156E-01 0.000000000000E+00 -3.318511284140E-02 -3.404196022102E-01 0.000000000000E+00 -1.573533061310E-01 -4.592280220285E-01 0.000000000000E+00 -5.598334688349E-01 -7.187811716209E-01 0.000000000000E+00 1.258005409306E-01 -4.513400957653E-01 0.000000000000E+00 1.075192393791E+00 1.098471705922E+00 0.000000000000E+00 -4.363769495517E-01 2.493664773940E-01 0.000000000000E+00 -5.346663442403E+02 -8.603230595123E+02 0.000000000000E+00 1.452613827123E-01 2.559357071378E-01 0.000000000000E+00 4.233408905975E+02 -7.286964821743E+02 0.000000000000E+00 -8.577423464814E+01 1.864069251413E+00 0.000000000000E+00 7.235437993415E+01 -7.718066789717E-01 0.000000000000E+00 8.510427664403E+01 2.537147722131E+03
 0.000000000000E+00 0.000000000000E+00 0.000000000000E+00 0.000000000000E+00 0.000000000000E+00 0.000000000000E+00 0.000000000000E+00 0.000000000000E+00 0.000000000000E+00 0.000000000000E+00 0.000000000000E+00 0.000000000000E+00 0.000000000000E+00 0.000000000000E+00 0.000000000000E+00 0.000000000000E+00 0.000000000000E+00 0.000000000000E+00 0.000000000000E+00 0.000000000000E+00 0.000000000000E+00 0.000000000000E+00 0.000000000000E+00 0.000000000000E+00 0.000000000000E+00 0.000000000000E+00 0.000000000000E+00 0.000000000000E+00 0.000000000000E+00 0.000000000000E+00 0.000000000000E+00 0.000000000000E+00 0.000000000000E+00 0.000000000000E+00 0.000000000000E+00 0.000000000000E+00 0.000000000000E+00 0.000000000000E+00 0.000000000000E+00 0.000000000000E+00 0.000000000000E+00 0.000000000000E+00 0.000000000000E+00 0.000000000000E+00 0.000000000000E+00 0.000000000000E+00 0.000000000000E+00 0.000000000000E+00 0.000000000000E+00 0.000000000000E+00 0.000000000000E+00
 -2.906241644946E-01 6.853323918656E-02 0.000000000000E+00 -1.221757901888E+03 4.482013046900E+02 0.000000000000E+00 -7.154992195937E-02 9.625096835741E-02 0.000000000000E+00 -1.703763694478E+00 1.920933183592E+00 0.000000000000E+00 2.095013539899E-02 2.282528961267E-01 0.000000000000E+00 4.084541536741E+01 -9.363779327140E-01 0.000000000000E+00 -5.936671675752E-02 -3.532859721739E-01 0.000000000000E+00 -2.069527909634E+01 3.522937634599E+01 0.000000000000E+00 7.180438242014E-02 -4.300542364966E-01 0.000000000000E+00 7.973143036064E-01 9.192739875678E-01 0.000000000000E+00 -4.384597773464E-01 6.454918088898E-02 0.000000000000E+00 3.051921879451E-01 4.845135640279E-01 0.000000000000E+00 2.034853767870E-01 3.879625360606E-01 0.000000000000E+00 -1.142780300520E+03 -3.860911470220E+02 0.000000000000E+00 1.419975959288E-01 -4.720435155527E-01 0.000000000000E+00 3.665092151202E+01 -6.133540559523E-01 0.000000000000E+00 -1.800074560654E+01 -3.284640226292E+01 0.000000000000E+00 2.733989610715E+03
 -4.003371276162E-01 2.659356749812E-01 0.000000000000E+00 4.570044014759E+02 -7.457136720584E+02 0.000000000000E+00 8.349760809975E-02 7.411270751702E-02 0.000000000000E+00 -2.356198656154E+00 1.359482394565E+00 0.000000000000E+00 -6.332644155544E-01 7.041472344579E-01 0.000000000000E+00 6.733802705846E+01 -1.852822305167E+00 0.000000000000E+00 3.704710618186E-01 -6.254708172879E-01 0.000000000000E+00 -3.211391584286E+01 5.570973811451E+01 0.000000000000E+00 2.754938170846E-02 -9.919207371715E-01 0.000000000000E+00 1.610219985250E+00 5.221635651800E-01 0.000000000000E+00 -6.503823581267E-01 2.141478528468E-01 0.000000000000E+00 1.525633116939E-01 5.137590464572E-01 0.000000000000E+00 3.696104724771E-01 4.472829110245E-01 0.000000000000E+00 -3.852091279165E+02 -6.642219658898E+02 0.000000000000E+00 2.654266961435E-01 -4.958455889818E-01 0.000000000000E+00 -6.496111564284E+01 -1.895113904085E-01 0.000000000000E+00 3.234167229411E+01 5.714438112533E+01 0.000000000000E+00 -1.109401512034E+01 2.827003450944E+03
 0.000000000000E+00 0.000000000000E+00 0.000000000000E+00 0.000000000000E+00 0.000000000000E+00 0.000000000000E+00 0.000000000000E+00 0.000000000000E+00 0.000000000000E+00 0.000000000000E+00 0.000000000000E+00 0.000000000000E+00 0.000000000000E+00 0.000000000000E+00 0.000000000000E+00 0.000000000000E+00 0.000000000000E+00 0.000000000000E+00 0.000000000000E+00 0.000000000000E+00 0.000000000000E+00 0.000000000000E+00 0.000000000000E+00 0.000000000000E+00 0.000000000000E+00 0.000000000000E+00 0.000000000000E+00 0.000000000000E+00 0.000000000000E+00 0.000000000000E+00 0.000000000000E+00 0.000000000000E+00 0.000000000000E+00 0.000000000000E+00 0.000000000000E+00 0.000000000000E+00 0.000000000000E+00 0.000000000000E+00 0.000000000000E+00 0.000000000000E+00 0.000000000000E+00 0.000000000000E+00 0.000000000000E+00 0.000000000000E+00 0.000000000000E+00 0.000000000000E+00 0.000000000000E+00 0.000000000000E+00 0.000000000000E+00 0.000000000000E+00 0.000000000000E+00 0.000000000000E+00 0.000000000000E+00 0.000000000000E+00