#BIOSYM hessian 1
@Type: Hessian Update
@Units
 distance: 	A
 energy: 	Kcal/Mol
#header
@natom 66

#label
C1      C2      C3      C4      C5      C6      C7      C8      C9      C10     C11     C12     C13     C14     C15     C16     C17     C18     C19     C20     C21     C22     C23     H24     C25     C26     C27     C28     C29     C30     C31     C32     C33     C34     C35     C36     C37     C38     C39     C40     C41     C42     C43     C44     C45     C46     C47     C48     C49     H50     H51     H52     H53     H54     H55     H56     H57     H58     H59     H60     H61     H62     H63     H64     H65     H66

#element
C  C  C  C  C  C  C  C  C  C  C  C  C  C  C  C  C  C  C  C  C  C  C  H  C  C  C  C  C  C  C  C  C  C  C  C  C  C  C  C  C  C  C  C  C  C  C  C  C  H  H  H  H  H  H  H  H  H  H  H  H  H  H  H  H  H 

#matrix
198
 2.783837079761E+03
 -2.393870850263E+01 2.819651622047E+03
 0.000000000000E+00 0.000000000000E+00 0.000000000000E+00
 3.974440413011E+01 6.705613188870E+01 0.000000000000E+00 2.792776138489E+03
 1.074231193465E+00 -6.129462790673E-01 0.000000000000E+00 -2.632329781618E+01 2.761474369835E+03
 0.000000000000E+00 0.000000000000E+00 0.000000000000E+00 0.000000000000E+00 0.000000000000E+00 0.000000000000E+00
 -1.786813841517E+01 3.446113322622E+01 0.000000000000E+00 -3.246058857292E+00 -1.147169213106E+01 0.000000000000E+00 2.793626960764E+03
 -3.509367582378E+01 5.991454202701E+01 0.000000000000E+00 1.249408102177E+00 1.260662426711E+01 0.000000000000E+00 -1.398063059306E+01 2.804557086383E+03
 0.000000000000E+00 0.000000000000E+00 0.000000000000E+00 0.000000000000E+00 0.000000000000E+00 0.000000000000E+00 0.000000000000E+00 0.000000000000E+00 0.000000000000E+00
 3.889195428752E+01 -6.828656821976E+01 0.000000000000E+00 -2.040698878303E+01 3.835260221648E+01 0.000000000000E+00 4.557177558050E+01 7.060675435939E+01 0.000000000000E+00 2.789432040904E+03
 1.488793367382E+00 1.823256261486E-01 0.000000000000E+00 -3.541989962347E+01 4.409951957608E+01 0.000000000000E+00 -2.286959880410E+01 1.902392713040E+01 0.000000000000E+00 -1.745434088718E+01 2.807628976402E+03
 0.000000000000E+00 0.000000000000E+00 0.000000000000E+00 0.000000000000E+00 0.000000000000E+00 0.000000000000E+00 0.000000000000E+00 0.000000000000E+00 0.000000000000E+00 0.000000000000E+00 0.000000000000E+00 0.000000000000E+00
 -8.217060751748E-01 9.335864568481E-02 0.000000000000E+00 1.535428049821E+00 4.715508020182E+00 0.000000000000E+00 4.970298438596E+01 -8.121224582668E+01 0.000000000000E+00 -2.322038531740E+01 4.791439499718E+01 0.000000000000E+00 2.632685503515E+03
 2.272162433886E-02 9.764731325508E-02 0.000000000000E+00 -4.729889652787E-01 1.608915644858E+00 0.000000000000E+00 1.997635580810E+00 -1.115635140445E+00 0.000000000000E+00 -3.494607467141E+01 6.405763167735E+01 0.000000000000E+00 -2.235310484642E+02 2.900401852132E+03
 0.000000000000E+00 0.000000000000E+00 0.000000000000E+00 0.000000000000E+00 0.000000000000E+00 0.000000000000E+00 0.000000000000E+00 0.000000000000E+00 0.000000000000E+00 0.000000000000E+00 0.000000000000E+00 0.000000000000E+00 0.000000000000E+00 0.000000000000E+00 0.000000000000E+00
 -1.231097334978E+03 4.476036257651E+02 0.000000000000E+00 -4.642113995519E+02 -2.034745545625E+00 0.000000000000E+00 9.848290511502E+00 -8.278542984908E+00 0.000000000000E+00 -8.742517752106E-01 1.089885797973E+01 0.000000000000E+00 -4.268684278744E+00 -3.621651777238E-01 0.000000000000E+00 2.818046775537E+03
 4.436063173922E+02 -7.416170559187E+02 0.000000000000E+00 -1.032325776005E+01 -1.443432184733E+03 0.000000000000E+00 -1.601996771853E+01 1.517890639291E+01 0.000000000000E+00 2.726943406113E+00 -1.913681812778E+01 0.000000000000E+00 6.796252085907E+00 1.276088571764E+00 0.000000000000E+00 7.040578493256E+00 2.768318214771E+03
 0.000000000000E+00 0.000000000000E+00 0.000000000000E+00 0.000000000000E+00 0.000000000000E+00 0.000000000000E+00 0.000000000000E+00 0.000000000000E+00 0.000000000000E+00 0.000000000000E+00 0.000000000000E+00 0.000000000000E+00 0.000000000000E+00 0.000000000000E+00 0.000000000000E+00 0.000000000000E+00 0.000000000000E+00 0.000000000000E+00
 -1.192962856186E+03 -4.126642698613E+02 0.000000000000E+00 6.225165895267E-01 -7.031772570624E+00 0.000000000000E+00 -1.271271994904E+03 4.538775386475E+02 0.000000000000E+00 -4.862160592761E+02 -2.009007152937E+01 0.000000000000E+00 3.950237872722E+00 -4.241535271583E-01 0.000000000000E+00 -1.639238374602E+01 -4.016501037741E+01 0.000000000000E+00 2.820040272262E+03
 -4.121457169281E+02 -7.020417468925E+02 0.000000000000E+00 1.050784316945E+00 -1.459090899872E+00 0.000000000000E+00 4.492101239053E+02 -7.490335567557E+02 0.000000000000E+00 -1.515863081524E+01 -1.512900499488E+03 0.000000000000E+00 5.243320839575E-01 -5.969196751458E-01 0.000000000000E+00 3.409739519883E+01 5.774997443560E+01 0.000000000000E+00 -2.526868114531E+01 2.846444971204E+03
 0.000000000000E+00 0.000000000000E+00 0.000000000000E+00 0.000000000000E+00 0.000000000000E+00 0.000000000000E+00 0.000000000000E+00 0.000000000000E+00 0.000000000000E+00 0.000000000000E+00 0.000000000000E+00 0.000000000000E+00 0.000000000000E+00 0.000000000000E+00 0.000000000000E+00 0.000000000000E+00 0.000000000000E+00 0.000000000000E+00 0.000000000000E+00 0.000000000000E+00 0.000000000000E+00
 -1.856063249481E+00 3.716621681203E-01 0.000000000000E+00 -1.218633947788E+03 -4.060808352282E+02 0.000000000000E+00 2.069271670749E+01 -1.897648604497E+01 0.000000000000E+00 -1.228110998483E+03 4.655053141878E+02 0.000000000000E+00 -8.832996843130E+00 -1.395277387965E+00 0.000000000000E+00 2.678738544548E+01 1.745328880891E+01 0.000000000000E+00 4.998253256055E+01 -1.342659152212E-01 0.000000000000E+00 2.785443090678E+03
 9.686685785779E-01 -2.557365211818E-02 0.000000000000E+00 -4.241911079947E+02 -7.089870983224E+02 0.000000000000E+00 -7.645043511302E+00 8.608862919164E+00 0.000000000000E+00 4.418909595353E+02 -7.468845724231E+02 0.000000000000E+00 3.124381220000E+00 1.155153412534E+00 0.000000000000E+00 -6.209240344168E+01 -6.278738632067E+00 0.000000000000E+00 6.521862791280E+01 -1.770446024515E+00 0.000000000000E+00 7.745964259786E+00 2.805277229781E+03
 0.000000000000E+00 0.000000000000E+00 0.000000000000E+00 0.000000000000E+00 0.000000000000E+00 0.000000000000E+00 0.000000000000E+00 0.000000000000E+00 0.000000000000E+00 0.000000000000E+00 0.000000000000E+00 0.000000000000E+00 0.000000000000E+00 0.000000000000E+00 0.000000000000E+00 0.000000000000E+00 0.000000000000E+00 0.000000000000E+00 0.000000000000E+00 0.000000000000E+00 0.000000000000E+00 0.000000000000E+00 0.000000000000E+00 0.000000000000E+00
 2.392411286576E-01 1.756070930751E-01 0.000000000000E+00 -1.312319323888E+00 2.165750617570E+00 0.000000000000E+00 -1.194540087119E+03 -4.066696742479E+02 0.000000000000E+00 1.395990880406E+00 9.817700369240E-02 0.000000000000E+00 -5.227779802429E+02 8.531610099279E+00 0.000000000000E+00 2.535961884324E-01 1.009177925802E+00 0.000000000000E+00 -2.159149284174E+01 -3.529238439713E+01 0.000000000000E+00 -7.802242256122E-01 1.615914765505E+00 0.000000000000E+00 2.774962122539E+03
 -1.350164636699E+00 7.072527702662E-02 0.000000000000E+00 2.863300380926E+00 6.372197183767E+00 0.000000000000E+00 -4.049220429416E+02 -7.159998551498E+02 0.000000000000E+00 -3.100438722807E+00 1.476422137892E+01 0.000000000000E+00 4.767114581354E+00 -1.637579622610E+03 0.000000000000E+00 -6.633547136861E+00 1.000857684351E+01 0.000000000000E+00 4.146162580078E+01 6.081322939622E+01 0.000000000000E+00 -1.321658600989E+01 4.151411116856E+00 0.000000000000E+00 -3.272466348433E+01 2.952280464624E+03
 0.000000000000E+00 0.000000000000E+00 0.000000000000E+00 0.000000000000E+00 0.000000000000E+00 0.000000000000E+00 0.000000000000E+00 0.000000000000E+00 0.000000000000E+00 0.000000000000E+00 0.000000000000E+00 0.000000000000E+00 0.000000000000E+00 0.000000000000E+00 0.000000000000E+00 0.000000000000E+00 0.000000000000E+00 0.000000000000E+00 0.000000000000E+00 0.000000000000E+00 0.000000000000E+00 0.000000000000E+00 0.000000000000E+00 0.000000000000E+00 0.000000000000E+00 0.000000000000E+00 0.000000000000E+00
 1.401015804553E-01 -3.503416878330E-02 0.000000000000E+00 -1.826871778785E-01 -1.118995208104E+00 0.000000000000E+00 -1.667194400693E+00 1.464719836312E+00 0.000000000000E+00 -1.195566443096E+03 -4.184815109231E+02 0.000000000000E+00 -1.334247178336E+03 4.955341157848E+02 0.000000000000E+00 8.137357713259E-01 -1.422376118903E+00 0.000000000000E+00 3.810531227010E+01 -3.494972287272E-01 0.000000000000E+00 -1.759677936927E+01 -3.351091270107E+01 0.000000000000E+00 4.946596051014E+01 1.476261285459E+00 0.000000000000E+00 2.881443975539E+03
 1.303800664325E+00 6.496622024423E-03 0.000000000000E+00 -3.090327881640E+00 -4.839357472106E+00 0.000000000000E+00 -9.479506363187E+00 1.124331000122E+01 0.000000000000E+00 -4.047996495580E+02 -7.167134290947E+02 0.000000000000E+00 4.973470038239E+02 -8.208837871117E+02 0.000000000000E+00 6.043655344808E+00 -8.558024429672E+00 0.000000000000E+00 -7.544991475914E+01 -1.077221321690E+00 0.000000000000E+00 4.594378449768E+01 5.504845471973E+01 0.000000000000E+00 8.382612023962E+01 5.507529798573E+00 0.000000000000E+00 -9.783328566435E+01 2.843092780536E+03
 0.000000000000E+00 0.000000000000E+00 0.000000000000E+00 0.000000000000E+00 0.000000000000E+00 0.000000000000E+00 0.000000000000E+00 0.000000000000E+00 0.000000000000E+00 0.000000000000E+00 0.000000000000E+00 0.000000000000E+00 0.000000000000E+00 0.000000000000E+00 0.000000000000E+00 0.000000000000E+00 0.000000000000E+00 0.000000000000E+00 0.000000000000E+00 0.000000000000E+00 0.000000000000E+00 0.000000000000E+00 0.000000000000E+00 0.000000000000E+00 0.000000000000E+00 0.000000000000E+00 0.000000000000E+00 0.000000000000E+00 0.000000000000E+00 0.000000000000E+00
 3.908065986568E+00 -3.460367845665E-01 0.000000000000E+00 -7.707564945344E+00 -2.086026489433E+01 0.000000000000E+00 -3.533308651299E+01 3.656062823213E+01 0.000000000000E+00 8.357489186295E+00 -4.473792885812E+01 0.000000000000E+00 1.472104692255E+01 4.047184331859E+00 0.000000000000E+00 1.988831363751E+01 -3.101603506197E+01 0.000000000000E+00 -1.910085525218E+01 -3.066609650691E+00 0.000000000000E+00 4.055283848258E+01 -1.373699376071E+01 0.000000000000E+00 4.786397604115E+00 2.066404886435E+01 0.000000000000E+00 -3.315161486500E+00 -1.658786684307E+01 0.000000000000E+00 2.743726577466E+03
 1.628871752472E+00 -2.291709223438E-01 0.000000000000E+00 -2.848518209001E+00 -1.017558723443E+01 0.000000000000E+00 -1.634086769165E+01 1.590540586113E+01 0.000000000000E+00 3.101879146239E+00 -1.986546273333E+01 0.000000000000E+00 6.894833720199E+00 1.469322375379E+00 0.000000000000E+00 8.701026128975E+00 -1.417663640281E+01 0.000000000000E+00 -7.702215373158E+00 -7.850995186757E-01 0.000000000000E+00 1.830351089740E+01 -6.782752842257E+00 0.000000000000E+00 1.380551457924E+00 1.001503697956E+01 0.000000000000E+00 -1.475437829180E+00 -8.416824205680E+00 0.000000000000E+00 -2.912959623500E+01 2.786291010761E+03
 0.000000000000E+00 0.000000000000E+00 0.000000000000E+00 0.000000000000E+00 0.000000000000E+00 0.000000000000E+00 0.000000000000E+00 0.000000000000E+00 0.000000000000E+00 0.000000000000E+00 0.000000000000E+00 0.000000000000E+00 0.000000000000E+00 0.000000000000E+00 0.000000000000E+00 0.000000000000E+00 0.000000000000E+00 0.000000000000E+00 0.000000000000E+00 0.000000000000E+00 0.000000000000E+00 0.000000000000E+00 0.000000000000E+00 0.000000000000E+00 0.000000000000E+00 0.000000000000E+00 0.000000000000E+00 0.000000000000E+00 0.000000000000E+00 0.000000000000E+00 0.000000000000E+00 0.000000000000E+00 0.000000000000E+00
 -2.458800336306E+00 8.022198571443E-01 0.000000000000E+00 2.351397491000E+00 2.327953033676E+01 0.000000000000E+00 3.329187437543E+01 -2.756449479664E+01 0.000000000000E+00 -2.637661511400E+00 3.649625984908E+01 0.000000000000E+00 -1.446768956608E+01 -1.054339558011E+00 0.000000000000E+00 -1.533406841730E+01 2.807773450466E+01 0.000000000000E+00 1.023669255447E+01 -1.456792075619E+00 0.000000000000E+00 -3.511590509904E+01 1.589221981736E+01 0.000000000000E+00 1.208959618136E+00 -2.261903103079E+01 0.000000000000E+00 2.726347133978E+00 2.074345677388E+01 0.000000000000E+00 1.091326378919E+02 1.011383713598E+02 0.000000000000E+00 2.731585693297E+03
 -2.206881901944E-02 8.906767919247E-03 0.000000000000E+00 1.363333837268E-02 2.390769615356E-01 0.000000000000E+00 3.316329816326E-01 -2.608927046966E-01 0.000000000000E+00 -1.591107095770E-02 3.523528560368E-01 0.000000000000E+00 -1.453718881322E-01 -5.074081230602E-03 0.000000000000E+00 -1.459757325563E-01 2.775107737784E-01 0.000000000000E+00 8.661518553141E-02 -2.316164289733E-02 0.000000000000E+00 -3.436723115847E-01 1.641649912577E-01 0.000000000000E+00 2.347424144157E-02 -2.316392601312E-01 0.000000000000E+00 2.636973368799E-02 2.167990986731E-01 0.000000000000E+00 -3.286332903611E-01 -1.453113417214E+00 0.000000000000E+00 2.778708299600E+02 2.859081628279E+03
 0.000000000000E+00 0.000000000000E+00 0.000000000000E+00 0.000000000000E+00 0.000000000000E+00 0.000000000000E+00 0.000000000000E+00 0.000000000000E+00 0.000000000000E+00 0.000000000000E+00 0.000000000000E+00 0.000000000000E+00 0.000000000000E+00 0.000000000000E+00 0.000000000000E+00 0.000000000000E+00 0.000000000000E+00 0.000000000000E+00 0.000000000000E+00 0.000000000000E+00 0.000000000000E+00 0.000000000000E+00 0.000000000000E+00 0.000000000000E+00 0.000000000000E+00 0.000000000000E+00 0.000000000000E+00 0.000000000000E+00 0.000000000000E+00 0.000000000000E+00 0.000000000000E+00 0.000000000000E+00 0.000000000000E+00 0.000000000000E+00 0.000000000000E+00 0.000000000000E+00
 -2.255090447029E+01 -3.415611688114E+01 0.000000000000E+00 4.287128899887E+01 1.171571438715E+01 0.000000000000E+00 2.030775282093E+01 -2.093306895477E+01 0.000000000000E+00 -4.743434068383E+00 2.564858870065E+01 0.000000000000E+00 -8.468382696459E+00 -2.294563698155E+00 0.000000000000E+00 -1.258107103367E+03 -4.159275490600E+02 0.000000000000E+00 1.088884224322E+01 1.711225397844E+00 0.000000000000E+00 -2.327268299186E+01 7.929517751334E+00 0.000000000000E+00 -2.684195795057E+00 -1.191421150937E+01 0.000000000000E+00 1.900605424836E+00 9.592902545826E+00 0.000000000000E+00 1.857909382076E+01 5.208001906430E+01 0.000000000000E+00 -3.868434453461E+01 -3.910380273375E-01 0.000000000000E+00 2.754800097212E+03
 3.809192193570E+01 6.062302012184E+01 0.000000000000E+00 -7.293290407468E+01 -8.841458989629E+00 0.000000000000E+00 -1.736765947251E+01 1.959508512326E+01 0.000000000000E+00 5.343027329862E+00 -2.332389818528E+01 0.000000000000E+00 7.094525071467E+00 2.639314730314E+00 0.000000000000E+00 -4.278724857328E+02 -7.395245137383E+02 0.000000000000E+00 -1.121845408572E+01 -2.533125563026E+00 0.000000000000E+00 2.066263440245E+01 -6.056970648353E+00 0.000000000000E+00 3.702125741503E+00 9.413921284576E+00 0.000000000000E+00 -1.723364862358E+00 -6.947757089701E+00 0.000000000000E+00 -6.368642377203E+01 4.163693632668E+01 0.000000000000E+00 3.617398088080E+01 3.738842424785E-01 0.000000000000E+00 3.556661789403E+01 2.792701188369E+03
 0.000000000000E+00 0.000000000000E+00 0.000000000000E+00 0.000000000000E+00 0.000000000000E+00 0.000000000000E+00 0.000000000000E+00 0.000000000000E+00 0.000000000000E+00 0.000000000000E+00 0.000000000000E+00 0.000000000000E+00 0.000000000000E+00 0.000000000000E+00 0.000000000000E+00 0.000000000000E+00 0.000000000000E+00 0.000000000000E+00 0.000000000000E+00 0.000000000000E+00 0.000000000000E+00 0.000000000000E+00 0.000000000000E+00 0.000000000000E+00 0.000000000000E+00 0.000000000000E+00 0.000000000000E+00 0.000000000000E+00 0.000000000000E+00 0.000000000000E+00 0.000000000000E+00 0.000000000000E+00 0.000000000000E+00 0.000000000000E+00 0.000000000000E+00 0.000000000000E+00 0.000000000000E+00 0.000000000000E+00 0.000000000000E+00
 5.971629853171E-01 6.017288706734E-02 0.000000000000E+00 -2.059530400634E+01 -3.262421032048E+01 0.000000000000E+00 -3.252238714001E+00 4.697907217239E+00 0.000000000000E+00 1.783350221581E+00 -5.213931877338E+00 0.000000000000E+00 1.239687529862E+00 9.070482259882E-01 0.000000000000E+00 2.491191062621E+00 -3.078262682337E+00 0.000000000000E+00 -3.261316714571E+00 -1.123300060960E+00 0.000000000000E+00 4.332511885379E+00 -6.936774703342E-01 0.000000000000E+00 1.547567219926E+00 1.293179234215E+00 0.000000000000E+00 -3.817184537078E-01 -5.365841347154E-01 0.000000000000E+00 3.446921651338E+01 -7.223888854126E+01 0.000000000000E+00 -1.430641769559E+01 4.043624811629E+01 0.000000000000E+00 4.294396092620E+01 6.539701294975E+01 0.000000000000E+00 2.772644150530E+03
 -4.621162496108E+00 2.077214144284E-01 0.000000000000E+00 4.353674235961E+01 7.684647288268E+01 0.000000000000E+00 3.797396832633E+01 -4.165851559960E+01 0.000000000000E+00 -1.078207945280E+01 5.002547651766E+01 0.000000000000E+00 -1.561609425945E+01 -5.298004059705E+00 0.000000000000E+00 -2.254563260667E+01 3.372693765244E+01 0.000000000000E+00 2.319490996412E+01 4.789261879351E+00 0.000000000000E+00 -4.464668771121E+01 1.375034546129E+01 0.000000000000E+00 -7.109500163170E+00 -2.112641098851E+01 0.000000000000E+00 3.699459266683E+00 1.607000550533E+01 0.000000000000E+00 6.901187884623E+01 3.383465167620E+01 0.000000000000E+00 -1.190593408716E+02 7.322355262644E+01 0.000000000000E+00 -3.994086039385E+01 3.102843329480E+01 0.000000000000E+00 -3.334783059716E+01 2.686235607497E+03
 0.000000000000E+00 0.000000000000E+00 0.000000000000E+00 0.000000000000E+00 0.000000000000E+00 0.000000000000E+00 0.000000000000E+00 0.000000000000E+00 0.000000000000E+00 0.000000000000E+00 0.000000000000E+00 0.000000000000E+00 0.000000000000E+00 0.000000000000E+00 0.000000000000E+00 0.000000000000E+00 0.000000000000E+00 0.000000000000E+00 0.000000000000E+00 0.000000000000E+00 0.000000000000E+00 0.000000000000E+00 0.000000000000E+00 0.000000000000E+00 0.000000000000E+00 0.000000000000E+00 0.000000000000E+00 0.000000000000E+00 0.000000000000E+00 0.000000000000E+00 0.000000000000E+00 0.000000000000E+00 0.000000000000E+00 0.000000000000E+00 0.000000000000E+00 0.000000000000E+00 0.000000000000E+00 0.000000000000E+00 0.000000000000E+00 0.000000000000E+00 0.000000000000E+00 0.000000000000E+00
 -3.545051889106E+00 2.333028135654E-01 0.000000000000E+00 7.337112828129E+00 1.752158828974E+01 0.000000000000E+00 3.052600403365E+01 -3.253693473605E+01 0.000000000000E+00 -7.943552512209E+00 3.943254484762E+01 0.000000000000E+00 -1.263583545414E+01 -3.877556616774E+00 0.000000000000E+00 -1.765287872951E+01 2.695501484483E+01 0.000000000000E+00 1.757379994950E+01 3.249273980995E+00 0.000000000000E+00 -3.546305052547E+01 1.146095928974E+01 0.000000000000E+00 -4.924778425924E+00 -1.741813002431E+01 0.000000000000E+00 2.918916967274E+00 1.362497976323E+01 0.000000000000E+00 -1.178089467557E+03 4.610511835472E+02 0.000000000000E+00 -5.673074156342E+02 -1.781665780505E+01 0.000000000000E+00 -3.243382646626E+01 2.600129858672E+01 0.000000000000E+00 3.813371217097E+00 -5.806670102606E+01 0.000000000000E+00 2.795010192929E+03
 3.643509372577E+00 -3.615577435353E-01 0.000000000000E+00 -7.019758953832E+00 -2.012567688908E+01 0.000000000000E+00 -3.368009961243E+01 3.439139619251E+01 0.000000000000E+00 7.617680423504E+00 -4.226828992747E+01 0.000000000000E+00 1.407236000409E+01 3.674198475674E+00 0.000000000000E+00 1.873112612261E+01 -2.948949282431E+01 0.000000000000E+00 -1.769043288413E+01 -2.633259410724E+00 0.000000000000E+00 3.844977769828E+01 -1.329084357625E+01 0.000000000000E+00 4.181184559255E+00 1.990750742310E+01 0.000000000000E+00 -3.133527307347E+00 -1.615258064726E+01 0.000000000000E+00 3.728580553924E+02 -7.615238374888E+02 0.000000000000E+00 3.636185532968E+01 -1.540830107641E+03 0.000000000000E+00 3.641550333927E+01 -3.017537058619E+01 0.000000000000E+00 -5.063219347483E+00 6.665518708073E+01 0.000000000000E+00 8.393334281351E+01 2.832513179521E+03
 0.000000000000E+00 0.000000000000E+00 0.000000000000E+00 0.000000000000E+00 0.000000000000E+00 0.000000000000E+00 0.000000000000E+00 0.000000000000E+00 0.000000000000E+00 0.000000000000E+00 0.000000000000E+00 0.000000000000E+00 0.000000000000E+00 0.000000000000E+00 0.000000000000E+00 0.000000000000E+00 0.000000000000E+00 0.000000000000E+00 0.000000000000E+00 0.000000000000E+00 0.000000000000E+00 0.000000000000E+00 0.000000000000E+00 0.000000000000E+00 0.000000000000E+00 0.000000000000E+00 0.000000000000E+00 0.000000000000E+00 0.000000000000E+00 0.000000000000E+00 0.000000000000E+00 0.000000000000E+00 0.000000000000E+00 0.000000000000E+00 0.000000000000E+00 0.000000000000E+00 0.000000000000E+00 0.000000000000E+00 0.000000000000E+00 0.000000000000E+00 0.000000000000E+00 0.000000000000E+00 0.000000000000E+00 0.000000000000E+00 0.000000000000E+00
 1.188452180007E+00 -3.238682516864E-01 0.000000000000E+00 -1.407871048052E+00 -1.015018240007E+01 0.000000000000E+00 -1.489111837814E+01 1.282850499283E+01 0.000000000000E+00 1.559863725839E+00 -1.673443686126E+01 0.000000000000E+00 6.427922735023E+00 6.716832496332E-01 0.000000000000E+00 -1.256463080175E+01 2.209591910985E+01 0.000000000000E+00 -5.141330062298E+00 3.362606829216E-01 0.000000000000E+00 1.593099567132E+01 -6.894324275491E+00 0.000000000000E+00 -1.259756714152E-01 9.888680242587E+00 0.000000000000E+00 -1.248414017681E+00 -8.907328934303E+00 0.000000000000E+00 -1.251749614385E+03 -4.385461804091E+02 0.000000000000E+00 2.375537460036E+01 2.278477328560E-01 0.000000000000E+00 -1.155990255413E+03 4.083398298122E+02 0.000000000000E+00 -4.756292153807E+02 2.412222744212E+01 0.000000000000E+00 6.697327246111E+00 -6.208412038601E+01 0.000000000000E+00 2.740922978024E+03
 5.476698498549E-01 -7.017817817503E-02 0.000000000000E+00 -9.875103445396E-01 -3.297331061417E+00 0.000000000000E+00 -5.357204110776E+00 5.287385970512E+00 0.000000000000E+00 1.073080689219E+00 -6.573940771345E+00 0.000000000000E+00 2.254814771479E+00 5.118709351218E-01 0.000000000000E+00 -3.002946731558E+01 5.347547275256E+01 0.000000000000E+00 -2.608668020819E+00 -3.030050159761E-01 0.000000000000E+00 6.034333161151E+00 -2.192359231447E+00 0.000000000000E+00 5.127767557571E-01 3.250955224118E+00 0.000000000000E+00 -4.876548874187E-01 -2.704736974595E+00 0.000000000000E+00 -4.388455182954E+02 -7.181281859184E+02 0.000000000000E+00 9.777559122754E+00 9.729969602223E-02 0.000000000000E+00 4.312681755600E+02 -7.215579293499E+02 0.000000000000E+00 -9.824169867714E-01 -1.486415118539E+03 0.000000000000E+00 4.332458884510E+01 4.982894247235E+01 0.000000000000E+00 -6.407231252812E-01 2.807878506507E+03
 0.000000000000E+00 0.000000000000E+00 0.000000000000E+00 0.000000000000E+00 0.000000000000E+00 0.000000000000E+00 0.000000000000E+00 0.000000000000E+00 0.000000000000E+00 0.000000000000E+00 0.000000000000E+00 0.000000000000E+00 0.000000000000E+00 0.000000000000E+00 0.000000000000E+00 0.000000000000E+00 0.000000000000E+00 0.000000000000E+00 0.000000000000E+00 0.000000000000E+00 0.000000000000E+00 0.000000000000E+00 0.000000000000E+00 0.000000000000E+00 0.000000000000E+00 0.000000000000E+00 0.000000000000E+00 0.000000000000E+00 0.000000000000E+00 0.000000000000E+00 0.000000000000E+00 0.000000000000E+00 0.000000000000E+00 0.000000000000E+00 0.000000000000E+00 0.000000000000E+00 0.000000000000E+00 0.000000000000E+00 0.000000000000E+00 0.000000000000E+00 0.000000000000E+00 0.000000000000E+00 0.000000000000E+00 0.000000000000E+00 0.000000000000E+00 0.000000000000E+00 0.000000000000E+00 0.000000000000E+00
 -3.593848092140E+00 7.485668493629E-01 0.000000000000E+00 5.250750944516E+00 2.665550318311E+01 0.000000000000E+00 4.063269559108E+01 -3.697951023014E+01 0.000000000000E+00 -5.758137166609E+00 4.728660675435E+01 0.000000000000E+00 -1.736876257615E+01 -2.624663379347E+00 0.000000000000E+00 -2.036659078002E+01 3.482564788721E+01 0.000000000000E+00 1.625664468760E+01 3.285575283844E-01 0.000000000000E+00 -4.435946213990E+01 1.796703789930E+01 0.000000000000E+00 -1.296379902010E+00 -2.608073995036E+01 0.000000000000E+00 3.519963099700E+00 2.283835516841E+01 0.000000000000E+00 7.985473375169E+01 3.593795580177E+01 0.000000000000E+00 -1.574048740001E+03 -5.292608116689E+02 0.000000000000E+00 -4.581926534005E+01 4.085697096504E+01 0.000000000000E+00 -1.269367722211E+03 3.468312858991E+02 0.000000000000E+00 -2.108638424998E+01 7.447672789312E+01 0.000000000000E+00 7.035311716854E+01 1.176868042996E+01 0.000000000000E+00 2.986965495446E+03
 -5.624588992321E-01 3.358602817318E-01 0.000000000000E+00 -1.106404165509E-01 7.965055796170E+00 0.000000000000E+00 1.049156836884E+01 -7.492341274710E+00 0.000000000000E+00 7.731030113538E-02 1.052043975446E+01 0.000000000000E+00 -4.663220201729E+00 1.461494135757E-01 0.000000000000E+00 -4.242251179008E+00 8.650075866026E+00 0.000000000000E+00 1.880133950112E+00 -1.213365355510E+00 0.000000000000E+00 -1.053013441087E+01 5.519960612143E+00 0.000000000000E+00 1.373430658166E+00 -7.674938835790E+00 0.000000000000E+00 7.901103132743E-01 7.424325014974E+00 0.000000000000E+00 2.222083497037E+01 9.252336179098E+00 0.000000000000E+00 -5.522930584384E+02 -8.663415136182E+02 0.000000000000E+00 -1.269085239980E+01 1.257855309821E+01 0.000000000000E+00 4.232372788129E+02 -7.515255860863E+02 0.000000000000E+00 -1.059800047116E+02 2.280100909591E+01 0.000000000000E+00 7.874427339584E+01 2.949187155375E+00 0.000000000000E+00 7.045682523438E+01 2.535824332113E+03
 0.000000000000E+00 0.000000000000E+00 0.000000000000E+00 0.000000000000E+00 0.000000000000E+00 0.000000000000E+00 0.000000000000E+00 0.000000000000E+00 0.000000000000E+00 0.000000000000E+00 0.000000000000E+00 0.000000000000E+00 0.000000000000E+00 0.000000000000E+00 0.000000000000E+00 0.000000000000E+00 0.000000000000E+00 0.000000000000E+00 0.000000000000E+00 0.000000000000E+00 0.000000000000E+00 0.000000000000E+00 0.000000000000E+00 0.000000000000E+00 0.000000000000E+00 0.000000000000E+00 0.000000000000E+00 0.000000000000E+00 0.000000000000E+00 0.000000000000E+00 0.000000000000E+00 0.000000000000E+00 0.000000000000E+00 0.000000000000E+00 0.000000000000E+00 0.000000000000E+00 0.000000000000E+00 0.000000000000E+00 0.000000000000E+00 0.000000000000E+00 0.000000000000E+00 0.000000000000E+00 0.000000000000E+00 0.000000000000E+00 0.000000000000E+00 0.000000000000E+00 0.000000000000E+00 0.000000000000E+00 0.000000000000E+00 0.000000000000E+00 0.000000000000E+00
 3.909905284725E+00 -4.614700812127E-01 0.000000000000E+00 -1.233671271263E+03 4.237631336439E+02 0.000000000000E+00 -3.753908007490E+01 3.748894901243E+01 0.000000000000E+00 7.848329793697E+00 -4.641658986758E+01 0.000000000000E+00 1.575694651325E+01 3.756459868252E+00 0.000000000000E+00 6.086596438928E+01 -3.305679548854E+01 0.000000000000E+00 -1.876520228630E+01 -2.403384417456E+00 0.000000000000E+00 2.250222130819E+01 2.062427416863E+01 0.000000000000E+00 3.960666937198E+00 2.257217654077E+01 0.000000000000E+00 -3.444640799511E+00 -1.863000814953E+01 0.000000000000E+00 -7.118472181581E+01 -3.324467938585E+01 0.000000000000E+00 6.929566577727E+01 6.947926503868E-01 0.000000000000E+00 4.094104229713E+01 -3.446506774944E+01 0.000000000000E+00 -1.145008733886E+03 -3.139416557699E+02 0.000000000000E+00 6.119317107495E+01 -6.800308477919E+01 0.000000000000E+00 5.854325994371E+00 -1.095861895187E+01 0.000000000000E+00 6.580233887455E+01 -1.024166926548E+01 0.000000000000E+00 2.655046868474E+03
 -8.690753851277E-01 1.155567663962E-01 0.000000000000E+00 4.576477174076E+02 -7.374283667182E+02 0.000000000000E+00 8.590581101442E+00 -8.435819783462E+00 0.000000000000E+00 -1.686499856300E+00 1.050464192873E+01 0.000000000000E+00 -3.618211802526E+00 -8.016419291487E-01 0.000000000000E+00 6.241411385539E+01 6.918263018291E+00 0.000000000000E+00 4.132947710338E+00 4.590236603436E-01 0.000000000000E+00 -4.278459812909E+01 6.291662487613E+01 0.000000000000E+00 -7.870532877853E-01 -5.231353243117E+00 0.000000000000E+00 7.798625212727E-01 4.370350861716E+00 0.000000000000E+00 1.640379942938E+01 7.606167494354E+00 0.000000000000E+00 -1.559452848920E+01 -1.555931421394E-01 0.000000000000E+00 -9.429717539358E+00 8.028973254494E+00 0.000000000000E+00 -3.865528194938E+02 -6.858229522632E+02 0.000000000000E+00 -1.415324556530E+01 1.564609839811E+01 0.000000000000E+00 -5.807052975504E+01 2.637702430909E+00 0.000000000000E+00 1.240236753914E+01 5.261203165440E+01 0.000000000000E+00 9.599401012607E+00 2.816445536313E+03
 0.000000000000E+00 0.000000000000E+00 0.000000000000E+00 0.000000000000E+00 0.000000000000E+00 0.000000000000E+00 0.000000000000E+00 0.000000000000E+00 0.000000000000E+00 0.000000000000E+00 0.000000000000E+00 0.000000000000E+00 0.000000000000E+00 0.000000000000E+00 0.000000000000E+00 0.000000000000E+00 0.000000000000E+00 0.000000000000E+00 0.000000000000E+00 0.000000000000E+00 0.000000000000E+00 0.000000000000E+00 0.000000000000E+00 0.000000000000E+00 0.000000000000E+00 0.000000000000E+00 0.000000000000E+00 0.000000000000E+00 0.000000000000E+00 0.000000000000E+00 0.000000000000E+00 0.000000000000E+00 0.000000000000E+00 0.000000000000E+00 0.000000000000E+00 0.000000000000E+00 0.000000000000E+00 0.000000000000E+00 0.000000000000E+00 0.000000000000E+00 0.000000000000E+00 0.000000000000E+00 0.000000000000E+00 0.000000000000E+00 0.000000000000E+00 0.000000000000E+00 0.000000000000E+00 0.000000000000E+00 0.000000000000E+00 0.000000000000E+00 0.000000000000E+00 0.000000000000E+00 0.000000000000E+00 0.000000000000E+00