#BIOSYM hessian 1
@Type: Hessian Update
@Units
 distance: 	A
 energy: 	Kcal/Mol
#header
@natom 67

#label
C1      C2      C3      C4      C5      C6      C7      C8      C9      C10     C11     C12     C13     C14     C15     C16     C17     C18     C19     C20     C21     C22     C23     H24     C25     C26     C27     C28     C29     C30     C31     C32     C33     C34     C35     C36     C37     C38     C39     C40     C41     C42     C43     C44     C45     C46     C47     C48     C49     H50     H51     H52     H53     H54     H55     H56     H57     H58     H59     H60     H61     H62     H63     H64     H65     H66     O67

#element
C  C  C  C  C  C  C  C  C  C  C  C  C  C  C  C  C  C  C  C  C  C  C  H  C  C  C  C  C  C  C  C  C  C  C  C  C  C  C  C  C  C  C  C  C  C  C  C  C  H  H  H  H  H  H  H  H  H  H  H  H  H  H  H  H  H  O 

#matrix
201
 2.783951614542E+03
 -2.391130068006E+01 2.817351884807E+03
 -5.195657091948E+01 -1.771376099030E+01 1.943926314394E+02
 3.782579981433E+01 6.854178404634E+01 -5.278233099666E-01 2.793245308430E+03
 1.027104409271E+00 -1.925448307746E+00 3.414293412939E-02 -1.454886168988E+01 2.759360366221E+03
 2.733256068461E-01 -4.893732548534E-01 8.408750746727E+00 -6.020369158039E+01 6.517353170907E+00 1.959043641358E+02
 -2.019984356001E+01 3.528756053926E+01 2.739153312919E-01 -4.461399907224E-01 9.194190885319E-01 5.893384396604E-01 2.811770487074E+03
 -3.309119724052E+01 5.896112172061E+01 2.611018182357E-01 8.303670679187E-01 -5.565319853921E-01 6.553979519571E-01 -3.088363497691E+01 2.818566032350E+03
 9.050586077375E-01 -1.037256728344E+00 9.521003072021E+00 4.533906512194E-02 -3.953027343453E-02 6.971179509211E-01 -5.519808243038E+01 -1.651310055345E+01 1.967412675951E+02
 3.916144313617E+01 -6.874774058089E+01 -7.012149755143E-01 -1.930345705904E+01 3.538719697774E+01 1.211091626015E+00 4.205028837816E+01 7.194125553309E+01 -6.031572401709E-01 2.787625046619E+03
 -5.510502052008E-01 9.376742041859E-01 7.552996062636E-02 -3.238108242836E+01 5.916722726505E+01 6.752889281825E-01 -3.330738323813E-01 -6.443862294049E-01 2.815245134240E-01 -1.828810104087E+01 2.834015611779E+03
 -8.403759986865E-01 1.433605932334E+00 9.358621906118E+00 8.322955596822E-01 -9.504637521920E-01 1.029335827938E+01 -1.672720348478E-01 -1.190154315234E+00 9.196971113623E+00 -5.751494361117E+01 -3.165889574087E+00 1.964616148036E+02
 -1.210314153164E-01 5.035333760460E-02 -7.098835241303E-03 -2.842793937314E-01 6.458881240659E-01 2.415453273308E-01 4.196197245540E+01 -7.327581124254E+01 -5.319503541468E-01 -2.148052363896E+01 3.837651521128E+01 5.773502566383E-01 2.634636138670E+03
 5.077296944888E-01 -6.431379169478E-01 -2.104830177281E-01 7.026765823468E-01 -6.205058601773E-01 2.356239529934E-01 5.695492786386E-01 -8.484318621983E-01 1.013453353018E-01 -3.548941915313E+01 6.274506139655E+01 4.501215490388E-01 -2.225719688660E+02 2.899321594759E+03
 2.928832826809E-02 1.651728125798E-01 1.053662050831E-02 6.491243879299E-02 -2.356726616805E-01 5.276287211893E-01 -7.261509545894E-01 1.795486643501E+00 1.084912168144E+01 1.044307105000E+00 -6.893672704906E-01 1.073625126699E+01 -5.385977500676E+01 -3.608145851663E+00 1.560309623614E+02
 -1.228583580118E+03 4.489738717197E+02 2.050066963010E+01 -4.695641177251E+02 -1.289774330562E+01 8.473627780515E+00 -4.328827979164E-01 2.028491380741E-01 1.563348943760E-01 1.700174725508E-01 -5.571642084707E-01 -2.433548981861E-01 6.027845163122E-02 3.554779314277E-01 -1.395875101344E-01 2.827643639837E+03
 4.420682549215E+02 -7.383677195129E+02 -4.851467042522E+00 -1.619723261033E+01 -1.426575637974E+03 2.389932049095E+00 -1.112897478576E+00 8.539218631084E-01 -1.364676445793E-02 -7.825699025652E-02 5.095718329506E-02 4.429963121763E-01 -5.693423199352E-01 9.983166659954E-01 -2.017318092439E-02 -7.037167502703E-01 2.769326163048E+03
 2.108193974715E+01 -5.113633800312E+00 -8.344832819447E+01 8.637417280484E+00 5.873016956502E+00 -7.998149695822E+01 1.891565591469E-01 4.133663680848E-01 4.980750633428E+00 -4.082375950680E-02 3.309658630499E-01 -8.758597265442E+00 1.204272970479E-01 1.806797497542E-01 2.476050039708E-01 -5.395580812970E+01 -9.775887974260E+00 1.938763903400E+02
 -1.193108996510E+03 -4.119522476374E+02 2.575172726070E+01 1.009619494017E+00 -1.883742725912E+00 -9.235596389115E-01 -1.261321230205E+03 4.485965245776E+02 2.156356637119E+01 -4.857008795963E+02 -1.343158925718E+01 8.626240549821E+00 5.396174465316E-02 -2.268342174233E-01 -4.357121499508E-01 -1.956990220009E+01 -3.134036766706E+01 7.507972172310E-01 2.819440205977E+03
 -4.113057192537E+02 -7.019051657987E+02 1.193962045215E+01 -9.034673532700E-01 6.321198244944E-03 2.546099114652E-01 4.503318687588E+02 -7.480494155966E+02 -5.848925974587E+00 -1.543313832497E+01 -1.513194433430E+03 4.122423324361E+00 -1.432230008072E-01 2.004307895447E-01 3.446101229348E-02 3.450377095958E+01 5.799671342732E+01 -1.062823021790E+00 -2.610976000562E+01 2.845592636347E+03
 2.454611402097E+01 1.202629286032E+01 -8.249601107077E+01 -2.651904116083E-01 2.951706884087E-02 -8.512310872361E+00 2.263738996860E+01 -5.754899278614E+00 -8.565797837475E+01 9.044395584262E+00 5.405580803553E+00 -8.515703312756E+01 -2.696886177616E-01 -7.044799745770E-02 -9.952696009875E+00 3.907838489866E-01 1.709074641784E-01 9.004763526262E+00 -5.469724806730E+01 -1.040334230725E+01 1.974507713663E+02
 -1.839380925295E-01 4.069319532334E-01 5.167509676905E-02 -1.220900030346E+03 -4.197905215916E+02 2.278557962800E+01 -4.124833452775E-01 4.301373395097E-01 7.890998775062E-02 -1.224347699030E+03 4.410198748558E+02 2.430109441014E+01 9.440344958395E-02 6.903670048781E-01 -7.185171622235E-02 3.741146222451E+01 -1.308479292561E+00 -7.427520409518E-01 4.136861916768E+01 -5.138706966539E-01 -1.133922410542E+00 2.804848467202E+03
 -6.745649692433E-01 5.507043001903E-01 8.874681670292E-02 -4.234326541434E+02 -7.062803191181E+02 6.113118819025E+00 -6.267837429816E-01 4.638733172503E-01 4.392024090422E-02 4.392161142762E+02 -7.369337186953E+02 -1.114597444188E+01 -1.858698339103E-02 8.002536010291E-01 -4.014321111337E-01 -6.782478951462E+01 -8.493348521736E-01 6.540196607196E-01 7.051024226104E+01 -9.026628919573E-01 -1.819894177171E+00 -2.741968176118E+00 2.809633567463E+03
 -3.628787651064E-01 2.394607888561E-01 -9.085255862391E+00 1.951168171555E+01 5.308918407230E+00 -8.449379030163E+01 1.328657843935E-01 -5.249947998238E-01 4.512420085238E+00 2.590182754132E+01 -1.159414983598E+01 -8.426910919206E+01 -2.486318587852E-01 -3.104225142168E-01 4.725610733030E+00 4.295527136267E-01 1.417071476721E-01 8.345860053457E+00 -1.295353554726E+00 -2.104506147577E-01 8.900767269597E+00 -5.545957085351E+01 1.715499753651E+01 1.967138612314E+02
 -1.644792243826E-01 2.620882408133E-01 1.709163210215E-01 -2.600165558579E-01 5.001847827773E-02 -5.900714620743E-01 -1.196308458782E+03 -4.068761257435E+02 2.605734281873E+01 1.455472477976E-01 -1.103146547123E-01 -3.793726215368E-01 -5.221530830902E+02 7.002522126556E+00 9.703293261399E+00 -3.288804801505E-01 -3.614170627052E-01 -1.925547636864E-01 -1.982806746938E+01 -3.389116030325E+01 7.375554612227E-01 -4.489426397405E-01 -4.462358119556E-01 3.309185928039E-01 2.771213001086E+03
 1.213526118985E-01 -1.898130041508E-02 -3.889829248909E-03 2.748692251207E-01 -8.027222414224E-01 -7.629339904787E-01 -4.158508936751E+02 -7.033941373404E+02 1.200405348046E+01 -4.174786375391E-01 -3.009273810410E-01 -5.365513160909E-02 8.282312158015E+00 -1.636189469772E+03 5.461764175290E+00 3.706095120882E-01 9.290354970710E-01 -4.102259094960E-01 3.483356848849E+01 5.959000374484E+01 -1.024335058058E+00 2.809409187119E-01 5.367790905990E-01 7.098204549066E-01 -3.039579097016E+01 2.959167066092E+03
 2.831436690972E-01 -2.372421929829E-01 4.559555275128E+00 -1.330675512290E-01 5.096569424478E-02 -2.646921127863E+00 2.515319986348E+01 1.136028963543E+01 -8.436682796472E+01 -7.288112013049E-01 -7.729500076897E-01 -1.071447668666E+01 9.660940738107E+00 5.782184391806E+00 -7.870694473349E+01 1.199933409253E-01 3.170375429147E-01 -1.175888452478E+00 7.619236192481E-01 6.440880694493E-01 9.862385956440E+00 3.694315240998E-01 5.413244918228E-01 1.168584003593E+00 -5.661276141547E+01 -9.923049657023E+00 1.856826371867E+02
 1.318297058479E-01 -9.361320304236E-02 1.486785513032E-01 3.718370709407E-01 -7.497217608179E-01 -3.536176996040E-01 3.882374874794E-02 -2.967996702578E-01 -2.969581662705E-01 -1.195484342960E+03 -4.164347055226E+02 2.514520554246E+01 -1.333541876972E+03 4.959556906998E+02 2.568447134968E+01 7.455219296711E-02 8.066985519434E-01 -3.095346915469E-01 3.876314925615E+01 -3.757532751547E-01 -5.519053710071E-01 -1.939682991564E+01 -3.264970005325E+01 1.342586488899E+00 4.955266030920E+01 4.644022992493E-01 -4.791855811082E-01 2.880251534543E+03
 -7.488996502103E-01 7.348379425819E-01 2.682151827028E-01 -1.324110307454E+00 1.749731433705E+00 8.196172281833E-02 -3.835918032569E-01 5.215775635220E-01 -1.373682584783E-01 -4.077185314358E+02 -7.035767573781E+02 9.973683761824E+00 4.939457521005E+02 -8.221551748900E+02 -9.571639474068E+00 -4.819283977271E-01 -2.027956258714E+00 -1.481276929468E-01 -6.847059548426E+01 5.144585346368E-01 1.390570008039E+00 3.351004067010E+01 5.699616400139E+01 -7.073478134014E-01 8.088681877096E+01 8.643446043639E-01 -1.749770412602E+00 -9.851448102958E+01 2.845956713287E+03
 9.972788167489E-02 -1.912616805320E-01 4.491528149200E+00 -1.722627382501E-02 2.386409278231E-01 3.184532049276E+00 -5.480266716610E-01 -1.194712282727E-01 -1.031197729529E+01 2.365924875608E+01 9.071931122575E+00 -8.389553501670E+01 2.650568234427E+01 -9.718288304567E+00 -7.864798169787E+01 5.028558592907E-02 4.622322028994E-02 -5.720403147277E-01 8.816304081279E-02 8.920184100296E-02 1.013553069580E+01 1.062652410277E+00 1.297658961959E+00 8.964441869365E+00 -1.152814390640E+00 2.503469867949E-01 1.189499081091E+01 -5.837187468470E+01 2.265207338254E+00 1.845979548216E+02
 3.572933990166E+00 -2.789264842543E+00 2.472334762568E-01 6.844886808077E+00 -1.214441264483E+01 -2.135467195634E+00 9.476505535732E-01 -1.017309076386E+00 9.378053156938E-02 2.289990412599E-01 5.160054834862E-01 -8.026107645162E-01 1.519316008137E+00 -2.245095826540E-01 -9.955577948438E-01 -1.511607634476E+00 1.158253110879E+01 -4.080534362686E-01 -3.114446755081E+00 1.016730813151E-02 2.325280099917E-01 -1.669415924045E+00 4.737836496107E-02 1.000112691255E+00 -6.626196490255E-01 5.195275240730E-02 6.604349522240E-01 -1.382819776483E+00 1.710484837196E+00 8.529187360016E-01 2.784030729973E+03
 1.085270685588E+00 -1.319139653412E+00 -1.806032017309E-01 2.536891753743E+00 -1.903981380140E+00 -3.110366531396E-01 4.732811644592E-01 -8.486953462109E-01 -6.957576928428E-02 -3.603048097446E-01 -8.090295887500E-03 -1.074203569981E-01 1.028906214142E-01 -9.865485849483E-01 1.766666047471E-01 2.681102790947E-01 2.526347652419E+00 -2.723295915485E-01 -4.300915333580E-01 3.253894335853E-01 1.078934779115E-01 9.673327999904E-01 1.418430751621E+00 -1.591540830029E-01 5.407847825371E-01 -1.731048251430E-01 3.558888176263E-02 -2.508543600333E-01 1.321653320990E+00 1.038690352899E-03 1.021328416222E+01 2.776557416581E+03
 -5.112306699469E-01 2.279614957804E-01 8.210707610569E-02 -1.533816759260E-01 1.188537428079E+00 -1.851634866476E-01 -1.201210424011E-01 2.527879741617E-01 1.143445401601E-01 5.913555810834E-02 3.771445737009E-01 -3.990229736803E-02 6.386949357845E-02 -1.192381893440E-01 1.114068803213E-01 -2.844615801174E-01 -4.500447762500E-01 4.506556099195E+00 1.526196394645E-01 -1.271578176110E-01 1.568565971686E-01 2.118439816585E-02 3.420075448397E-01 -2.300048748048E-01 1.520364441240E-02 -1.565869108185E-01 -3.093543805410E-01 -1.410704925187E-01 1.140059741364E-01 -1.655425281784E-01 8.049854046737E+01 5.227365510617E+01 2.014168279574E+02
 1.069675424265E+01 -8.976084757695E+00 2.109137617213E-01 2.102021397863E+01 -2.993130055249E+01 -4.824071446902E+00 2.490128473849E+00 -3.841890368773E+00 -3.457010907944E-02 3.159569929418E-01 1.018181890843E+00 -1.116119299731E+00 3.714518392091E+00 -1.800614645118E+00 -1.639101325928E+00 -4.595847480196E+00 2.887146575404E+01 1.674080234882E-01 -7.925754311637E+00 1.207908952363E-01 2.504523205252E-01 -2.918583946240E+00 1.646898244509E+00 1.460104697562E+00 -6.758831809798E-01 1.323037653675E-01 1.033599693684E+00 -3.868319171802E+00 5.573653487812E+00 1.469269737226E+00 -5.209085242828E+01 6.020377078602E+01 5.810663659545E+00 2.678112643618E+03
 -3.386025080516E+00 2.585911987558E+00 1.169812317082E+00 -6.072999719273E+00 9.648249100220E+00 -3.414861647671E+00 -2.445587116013E+00 2.161552152360E+00 1.839289163721E-01 9.052337873947E-01 4.847327201439E-01 5.510436592946E-01 -4.940631250490E-01 2.961258001886E+00 -5.656131524106E-01 -3.418202443383E+00 -8.696577121913E+00 -6.108627358299E-01 1.419273297882E+00 -6.362989883344E-01 -6.376992298775E-01 -3.447041734151E+00 -4.712533449816E+00 5.155196331275E-01 -1.741102709408E+00 2.126192359125E+00 5.738328174720E-01 1.136291279295E+00 -4.329118459341E+00 2.993926924097E-01 1.379527884910E+00 8.552246452951E+00 4.249714169686E+00 4.766398875064E+02 2.982199189108E+03
 -4.748700993424E+00 5.983243160447E+00 -3.191962348097E-01 -9.844769839205E+00 4.356533607253E+00 1.531008027388E+00 -2.011665241803E-01 1.280950353515E+00 -1.941468245750E-01 -5.272105394945E-01 -1.007780272980E+00 5.449834114206E-01 -1.945856627657E+00 2.325791212946E+00 -3.677935078071E-01 5.842931934081E+00 -6.616306960990E+00 1.341118732478E-01 2.199682893143E+00 6.474670388574E-01 -3.806242536077E-01 1.029823463360E+00 -1.569770769883E+00 4.041356681016E-01 2.275996105194E-01 -1.595496300420E+00 9.326789422639E-02 1.933738069816E+00 -2.686891401335E+00 2.154343444094E-01 2.305646177263E+01 8.341332880824E+00 1.115953755484E+01 6.686712142988E+02 -3.103735420168E+01 7.377910685581E+02
 -1.866786654701E+01 -3.548612933965E+01 3.756033099772E-01 4.259608598708E+01 -7.037342787728E+00 -9.993005649367E-01 1.241859722902E+00 -8.133855039172E-01 8.728767646509E-02 -2.903330946704E-01 4.386695435151E-02 -7.778999185685E-02 5.454310510192E-01 -8.244132134714E-01 -4.743635957547E-02 -1.248316512930E+03 -4.253238729020E+02 2.700158761647E+01 -1.510181651801E+00 4.278002894138E-01 5.011349176513E-01 9.052566865436E-01 1.823959098573E+00 -1.142016462740E-01 3.778139633034E-01 -1.328360355099E+00 -4.634864527858E-01 -9.186376090594E-01 2.025488359784E+00 2.144277042171E-02 -2.951209286105E+01 3.065204053222E+01 1.046551709732E+00 -2.392263452524E+01 1.035199550934E+01 1.549146456050E+00 2.765102544849E+03
 3.567480694508E+01 6.040210240034E+01 -1.152127699238E+00 -6.895297405768E+01 2.735293492991E+00 1.336548177726E+00 -4.222844361903E-01 -4.022846914552E-01 -2.384454110846E-01 -2.945021072318E-01 -4.390618994617E-01 -1.061567457266E-02 -3.589686234231E-01 -3.347508726404E-01 2.145934922136E-01 -4.365090525190E+02 -7.202635602238E+02 1.012696052027E+01 7.349888970459E-01 1.075880590804E-01 -2.837598894369E-01 5.850905726272E-01 1.728424729334E-01 -1.800352363235E-02 4.056480194147E-01 5.910325989755E-01 6.532210327777E-01 3.928027289833E-01 -1.722072748044E-01 1.191561120175E-01 -2.869331875692E+01 5.602023336030E+01 2.200961053950E+00 9.346429070883E+00 -2.618462466259E+00 5.765001008986E+00 1.493448763679E+01 2.804196576599E+03
 -2.576047246359E-01 1.141749521664E+00 9.870219554254E+00 1.467492575996E-02 -1.413888840568E+00 9.979984089338E+00 -1.667792968095E-01 3.272446495672E-01 1.308370687687E-01 2.819799058494E-01 2.787120084879E-01 2.388038808537E-01 1.873956876366E-01 2.476319038302E-01 1.098804098175E-01 2.544786829553E+01 1.040880868703E+01 -8.288192273224E+01 1.484007453214E-01 -4.877377945167E-01 4.647854592448E+00 -4.968494834650E-01 -1.974965211080E-01 4.252742247926E+00 -9.828237119163E-02 -4.280123172449E-01 -5.445759123496E-01 -3.781297441070E-01 -1.915137167728E-01 -2.635519506110E-01 -2.467360467318E+00 2.723756177525E+00 7.755243738713E+00 -1.989059758856E+00 -2.031505120043E+00 1.625973747369E+00 -4.830980491805E+01 5.576894202774E+00 1.918252530396E+02
 -5.465936312718E+00 3.999811868747E+00 -1.294919612469E+00 -3.242699712027E+01 -4.012812945823E+00 8.966009744061E+00 -1.684897848055E+00 6.375777422630E-01 -5.252781034318E-01 -9.424578009279E-01 -2.124745109534E+00 2.285446261237E+00 -3.772436035155E+00 -1.205680164802E+00 2.979785997756E+00 2.799047505648E+00 -2.780154798981E+01 7.614065583459E-01 7.258695210232E+00 2.841784337778E-01 -7.195920614283E-01 5.459261920782E+00 6.040629203202E-01 -2.455158895864E+00 2.330618916592E+00 1.219154077916E+00 -1.552320287313E+00 3.629833957368E+00 -2.741681054482E+00 -2.391584434403E+00 1.178889531866E+02 -6.310905406516E+01 -9.832922499071E+00 1.792827943807E+02 2.433989134819E+01 -4.702423891764E+01 6.505525211805E+01 5.692331689282E+01 3.173167518538E+00 2.575851398428E+03
 5.600038088370E+00 -4.133159493725E+00 -1.472779795084E-01 4.661194488897E+01 3.880782058685E+01 -3.326046643454E+00 1.711478414602E+00 -1.811949376325E+00 -7.417513583749E-02 3.549299284798E-01 4.583210105686E-01 -8.784838096444E-01 2.256504221016E+00 -1.439491282791E+00 -7.640105368695E-01 -2.589956819152E+00 1.570991738604E+01 -4.246885405913E-02 -4.633299263974E+00 -1.619644017370E-01 3.309329741784E-01 -8.411124137501E-01 3.054659027664E+00 6.735327280860E-01 -2.684175677026E-02 -1.088283661440E+00 5.974387420165E-01 -2.657096848680E+00 3.976409643593E+00 8.418672986671E-01 -4.387640400092E+01 -6.084996511666E+00 -6.092088526338E-01 -1.413722443652E+02 1.216550946675E+02 5.608346715070E+01 -1.542558683783E+01 4.720716327292E+00 -4.760435010533E-01 3.888997348666E+01 2.725869384292E+03
 2.143346540515E-01 -1.358976747173E+00 2.074683072178E-01 8.839791230759E-01 3.291167364174E-01 9.093663665451E+00 -2.839993562286E-01 4.077980388980E-01 3.751091085688E-01 2.681312983529E-01 1.011981599171E+00 4.794034644856E-01 6.643989441202E-01 4.956378183452E-01 7.431301676679E-02 -1.734752499583E+00 3.445672181141E+00 -8.271161202458E+00 -4.932308695557E-01 -2.136070768704E-01 1.885058594062E-01 -1.251741589331E+00 -1.275255733647E+00 3.685293632625E+00 -5.678479488294E-01 -1.808345638247E-01 -1.137391321852E+00 -9.597328974985E-01 -2.335999307602E-01 -4.640859567282E-01 -9.426040200664E+00 9.525418276245E-01 1.222518399799E+01 3.285849555856E-01 2.814607570581E+01 9.604048047687E+00 1.754354808554E+00 -3.129431446000E+00 8.319407777937E+00 -6.373666887582E+01 -1.094932289424E+01 2.577543054620E+02
 -8.923707821144E-01 7.664936535152E-01 5.962783055417E-01 -1.835481239569E+00 -1.437469286957E+00 -3.266289786953E+00 -4.439178776823E-01 3.335676628269E-01 -8.524694494811E-02 -1.210772432178E-01 1.194411986700E-01 -7.648615496593E-01 6.841585527488E-03 1.207542587005E+00 -1.033288824374E+00 7.959117496267E-01 2.141523877342E+00 -9.955354467269E-01 -1.935976210150E-01 1.983057895482E-01 -2.077212596056E-01 -1.315253788575E+00 -1.569987766786E+00 1.301048470355E+00 -6.502608225628E-01 4.688454776861E-01 1.497352078966E+00 4.242627240392E-01 -1.108789825350E+00 1.096943940212E+00 -1.255736004492E+03 4.244086145685E+02 -3.761513121537E+01 -5.382967831481E+02 2.310598413193E+01 -8.495091065043E+01 -2.438637313038E+00 1.561167052245E+00 -7.055933385876E-01 1.430606758307E+01 4.014960790540E+00 4.270659878263E+00 2.824327723545E+03
 1.079333091069E+01 -9.768023267200E+00 -6.491863152456E-01 1.946459415895E+01 -3.020030322956E+01 -2.350864850912E+00 4.344585589172E+00 -5.024225663036E+00 -1.262019736683E-02 -1.209132513463E+00 8.721855897219E-01 -1.532682202809E+00 2.969572184363E+00 -4.077056178036E+00 -9.772036432648E-01 1.040346116200E+00 3.310806051824E+01 8.224253640531E-01 -7.451210787129E+00 1.756753123952E+00 1.014557978485E+00 1.828092475917E+00 6.135046948723E+00 5.634547466779E-01 1.121361028546E+00 -1.999064228721E+00 -2.117578266191E-02 -3.606051304990E+00 8.602288328676E+00 9.282624893931E-01 3.434467903848E+02 -7.390909359326E+02 -2.895385761714E+00 -1.774342107873E+02 -1.478554423027E+03 1.318983715166E+01 -2.991505438281E+01 7.116031530472E+00 -1.413521361173E+00 1.517944294335E+02 -1.063106611777E+02 -1.137761308532E+01 -1.607674103512E+01 2.700191289762E+03
 1.154095491106E+00 -1.128429469050E+00 -2.379945187795E-01 3.022141205078E+00 -3.079893565199E+00 2.896478706720E+00 7.479688366146E-01 1.770625446345E-01 5.557647401291E-01 5.661385580471E-01 6.493398985357E-01 8.601203763127E-01 7.285844087335E-01 -3.420612199020E-01 5.728525636275E-01 -1.022314782711E+00 2.388042008241E+00 1.464227490872E+00 -1.177489146662E+00 -2.902101040747E-01 5.398997485211E-01 -2.961491480188E-01 3.750700975520E-01 -1.446021490929E+00 -2.777561373986E-01 -9.791261642822E-01 -2.405865102683E+00 -1.204150804638E+00 1.022807148946E+00 -1.152330873113E+00 -5.274531082999E+01 2.468140364106E+00 -9.511366552966E+01 -5.729490213188E+01 -4.734161412899E+01 -1.139910045178E+02 -2.159139547942E+00 -1.579189699300E+00 5.160928222867E+00 1.676203699275E+01 -1.604899611659E+01 -7.173495464042E+00 1.966633264748E+02 1.347196126622E+02 2.630292161264E+02
 -2.627553452080E+00 1.805191304379E+00 4.684775700489E-02 -4.953125698669E+00 6.852926289347E+00 8.844292074745E-01 -1.041224321029E+00 8.631716808005E-01 -1.601048489899E-01 7.884829881262E-03 -6.451392387537E-01 3.633199078966E-01 -8.552601702831E-01 4.441831706913E-01 5.152969850487E-01 -1.989625771102E+01 2.722620580941E+01 4.501101499957E-01 2.137437626764E+00 -2.063881743873E-01 -3.071625517917E-01 6.559851708673E-01 -1.958088877513E-01 -3.439829295235E-01 2.384954027487E-01 2.008044951608E-01 1.422217120469E-01 8.321332249850E-01 -1.548978576308E+00 -2.997774776688E-01 -1.193817781417E+03 -4.315075206515E+02 -3.157586109321E+01 5.896507534422E+01 -6.253852613295E+00 -1.292108703074E+01 -1.159309667580E+03 4.233038470517E+02 2.201982778426E+01 -5.372230445452E+02 5.615886006987E+00 1.904099203049E+00 -1.463492479220E+01 1.725946414994E+01 2.271318975654E+00 2.739871969156E+03
 -1.697673236438E+00 1.234423320780E+00 -7.837366008998E-01 -4.566133358584E+00 6.694935485867E+00 4.595728885982E+00 2.837503272190E-01 -1.454404464680E-02 -1.569522796419E-01 -6.212178305915E-01 -5.494779676755E-01 7.415340020751E-01 -1.072963326801E+00 -1.099689972066E+00 1.253963658401E+00 -2.924767896047E+01 5.237760429677E+01 2.049501698877E+00 1.970443781742E+00 3.594627832500E-01 1.040237486141E-01 3.283426082056E+00 2.584985161263E+00 -1.392500242312E+00 1.481267260725E+00 -1.483419107030E+00 -1.326054382904E+00 4.399016345457E-01 6.602772060016E-01 -1.142703283001E+00 -4.055438422606E+02 -7.009769638329E+02 -2.004011546765E+01 7.980438932849E+01 2.272386947606E+00 -4.164938085105E+01 4.332743087484E+02 -7.220761423307E+02 -1.370848464071E+01 -8.206995688349E+01 -1.463491121940E+03 1.080448535674E+01 4.060721446519E+01 1.108207036295E+02 9.799864296436E+00 6.681633713442E+00 2.768698111328E+03
 -5.329712887713E-01 2.688762993099E-01 4.606649585182E+00 1.277144696549E+00 2.529648929361E+00 -1.089994168136E+01 -4.205983980317E-01 -3.432869072177E-01 -3.803679073604E-01 -1.463489447799E-01 -2.846637275031E-01 -4.781125004939E-01 -2.606546804415E-01 -4.193911048664E-01 -1.302318655844E-01 6.489356984177E-01 -4.117013078488E+00 8.286303069717E+00 3.777083544587E-01 -1.095435346133E-01 -2.984190991891E-01 4.780601864407E-01 9.461811240900E-01 5.944044102281E-01 4.229988714423E-01 5.382917144089E-01 1.343970807764E+00 4.357787451846E-01 2.238180657155E-01 5.760395149018E-01 -1.519504962813E+01 -1.117680191664E+01 -8.146337734627E+01 7.885713928954E+00 3.783519164701E+00 -1.012350442186E+01 1.617152293666E+01 -9.745909279130E+00 -8.035839542520E+01 -9.219606016633E+00 -2.171254014898E+00 -9.013187785170E+01 5.113001445854E+00 4.579140302438E+00 9.664201542586E+00 -9.796945186882E-01 2.464989741025E+01 1.956297239011E+02
 -3.916287615438E+00 4.567986939541E+00 -3.450644560794E-01 -7.902778278767E+00 7.358849174321E+00 2.864514394745E+00 -8.951307258118E-01 1.282498912408E+00 -3.488287282432E-01 -8.859117124975E-02 -1.311134150676E+00 8.164559065272E-03 -1.477971969129E+00 1.102080269541E+00 1.594714833035E-01 2.242064352642E+00 -1.109397270800E+01 -1.021366071154E+00 3.023600688453E+00 -3.473050371886E-01 -4.411084113295E-01 7.000846730703E-01 -1.164595059248E+00 5.011193423343E-01 2.743169841923E-01 -4.834535067645E-02 9.919922455268E-01 1.717229778296E+00 -2.628202030515E+00 2.077904001179E-01 3.493821284638E+01 8.023869116440E+00 -3.897641120275E+00 -1.488768291957E+03 -7.232796205043E+02 -1.596704331146E+02 8.117754098259E+00 1.073841691923E+00 2.201464810358E+00 -1.298967638926E+03 4.725730132497E+02 -2.239353668821E+00 7.118782846964E+01 6.130776211043E+01 -5.154652465194E+00 1.940260074996E+01 -3.347394862998E+01 -4.876758561774E+00 3.359902320721E+03
 -1.362594885058E+01 1.154164934003E+01 9.467788410005E-01 -2.557161574483E+01 3.870582761104E+01 2.042760964639E+00 -5.197907147637E+00 6.082523628164E+00 1.210919931622E-01 1.023798371005E+00 -6.851558170658E-01 1.517022242353E+00 -3.851883095605E+00 4.898404820082E+00 1.026678487077E+00 3.105665253643E-01 -3.912596481855E+01 -1.160290087030E+00 9.404804451765E+00 -1.573405429838E+00 -1.052560689728E+00 -1.801132339491E+00 -7.660844999954E+00 -6.011064485999E-01 -1.360404216025E+00 2.573771480419E+00 3.089611611485E-02 4.782295396336E+00 -1.048561093370E+01 -1.054656014400E+00 9.720438301150E+01 1.361908618659E+01 -3.051366288900E+00 -3.552527437786E+02 -9.010011236940E+02 -8.698661342504E+00 3.531941432742E+01 -1.133675290084E+01 1.794197947698E+00 2.300502617811E+02 -6.480370666991E+02 1.745156373461E+01 -7.850450350780E+01 2.329092245024E+02 1.368923771461E+01 1.095262128213E+01 -6.112449960370E+01 -5.853932868535E+00 1.282045722525E+02 2.259440378876E+03
 -3.875894466176E+00 9.159684494723E+00 -1.484466554850E-01 -1.645691225300E+00 -1.242949427290E+01 3.490529139448E+00 1.854775610042E+00 2.342069132053E+00 -5.156710961554E-02 7.504855398827E-01 3.149247757881E-01 -1.205933763304E+00 4.107719432386E-01 3.507998111062E+00 -2.159713013975E+00 1.061936147244E+01 5.032925472165E+00 -1.520755231638E-01 -2.015430760997E+00 -1.124711619060E+00 2.906308455987E-01 -2.400729551017E+00 -7.338113635925E-01 2.008352403636E+00 -5.302114696467E-01 -5.959841601873E+00 9.421087873448E-01 -1.118775985557E+00 -8.008361032518E-01 1.739434901099E+00 1.796527824604E+01 -6.625129258901E+00 -8.087834082998E+00 -8.298712525009E+01 7.624609658915E+01 -1.357886582615E+02 -2.441889124583E+01 1.742988627362E+01 5.135460241860E+00 9.854532945722E+01 4.348701670776E+01 -1.267806417727E+02 -2.536490975493E+01 1.339190442601E+01 -1.631141436816E+00 1.341790054426E+01 -7.027783934452E+00 1.705194130215E+01 -1.912957918219E+02 -4.792039072891E+02 7.064509586526E+02
 3.145322754238E+00 -2.197463539373E+00 2.559197525368E-01 -1.219945484966E+03 4.347308639497E+02 2.484966376191E+01 1.242139408615E+00 -1.076432802626E+00 6.665297039645E-02 -1.353744287955E-01 5.881800843239E-01 -7.542054175304E-01 1.371899490737E+00 -3.120747897936E-01 -1.033779668883E+00 4.041793484735E+01 1.223980910496E+01 -1.306765088371E+00 -3.058921615687E+00 2.847606254818E-01 3.230967277083E-01 -2.076959295819E+01 3.664979470306E+01 2.656833103740E+00 -3.001096406595E-01 -8.091699422935E-01 7.826044613436E-01 -1.435791573861E+00 2.105076382808E+00 1.053956637681E+00 -3.117999494381E+01 -4.021691119696E+00 3.103713675339E+00 -7.993821767499E+01 1.073604328743E+01 1.580467401726E+01 -1.272667799600E+01 5.270928833857E+00 -4.608113423913E-01 -1.066830756255E+03 -4.289016607606E+02 1.938852910297E+01 -5.390292034409E+00 -7.045694567462E+01 -8.009477629802E+00 6.033208981010E+01 2.208722571716E+01 2.370340943525E+00 8.248055431450E+00 5.665104543796E+01 -2.185699973982E+01 2.693974709554E+03
 6.093195005950E-01 2.624846402516E-01 5.829438772841E-01 4.570321043586E+02 -7.415889299171E+02 -1.966328133129E+01 1.656528852152E-02 2.610844980213E-01 1.350320586715E-01 4.107554423532E-01 3.192538558909E-01 -5.334355321971E-01 5.438482483914E-01 9.210832181297E-01 -9.221681529729E-01 6.622737206108E+01 1.747044058005E+00 -2.604728830493E+00 -1.247783390218E+00 -1.745319225355E-01 3.565911674527E-02 -3.516866455829E+01 5.775981750156E+01 2.638915966298E+00 -8.999477720590E-01 4.099748890656E-01 6.063597089967E-01 -1.524041938201E-01 -4.681350445833E-01 6.539186617067E-01 -1.431776087888E+01 7.564447869534E-01 1.934978683523E+00 -3.307233864448E+01 -1.617321076086E+00 3.015826473143E+00 -4.669733846141E+00 2.602572186602E+00 -6.522917612272E-01 -3.511580034837E+02 -6.932770985921E+02 -2.389372543217E+00 -6.280115668390E+00 -2.341214841650E+01 -2.161238623363E+00 -5.688372953589E+01 1.648358312883E+01 6.293398413872E+00 4.209550185160E+01 8.310564678536E+01 -1.472686503328E+01 -2.299423377145E+01 2.818986757539E+03
 3.252953765333E-01 -7.480919245136E-01 4.705304298166E+00 3.317618011202E+01 -1.877951089450E+01 -8.495481304421E+01 -3.341490509990E-01 -5.827261592263E-01 -3.728911058524E-01 -8.056621382293E-01 -1.813766263298E-01 4.037138225010E+00 -2.125594234033E-01 -2.734956548805E-01 -2.846765278256E-01 -2.319869124621E+00 2.253657755388E-01 7.985346935120E+00 4.286713387491E-01 5.948049282376E-01 -2.758364517846E-01 1.773454893329E+00 4.019475884425E-01 1.027667483090E+01 4.585224931690E-01 4.481237823256E-01 1.462066016870E+00 4.174862941346E-01 1.313436660102E-02 7.090539923505E-01 1.803305101005E+00 1.898573750188E-01 5.122224903084E+00 3.489731158460E+00 4.313821779309E+00 3.122554323027E+00 -7.707052301262E-01 3.957640626327E-01 -9.740444930174E+00 1.094049207573E+01 2.859716740674E+00 -8.322480783694E+01 2.742411064599E+00 3.102244437112E+00 -1.116907446012E+00 -7.519422592214E-01 -3.738170989357E+00 1.017632654980E+01 -2.096568354023E+00 1.110783881043E-01 5.569527768431E+00 -6.256686625572E+01 6.808844188693E+01 1.943456078232E+02