#BIOSYM hessian 1
@Type: Hessian Update
@Units
 distance: 	A
 energy: 	Kcal/Mol
#header
@natom 69

#label
C1      C2      C3      C4      C5      C6      C7      C8      C9      C10     C11     C12     C13     C14     C15     C16     C17     C18     C19     C20     C21     C22     C23     H24     C25     C26     C27     C28     C29     C30     C31     C32     C33     C34     C35     C36     C37     C38     C39     C40     C41     C42     C43     C44     C45     C46     C47     C48     C49     H50     H51     H52     H53     H54     C55     C56     H57     H58     H59     H60     H61     H62     H63     H64     H65     H66     O67     O68     H69

#element
C  C  C  C  C  C  C  C  C  C  C  C  C  C  C  C  C  C  C  C  C  C  C  H  C  C  C  C  C  C  C  C  C  C  C  C  C  C  C  C  C  C  C  C  C  C  C  C  C  H  H  H  H  H  C  C  H  H  H  H  H  H  H  H  H  H  O  O  H 

#matrix
207
 2.784503977086E+03
 -2.367053992300E+01 2.816585670448E+03
 0.000000000000E+00 0.000000000000E+00 0.000000000000E+00
 3.990562006389E+01 6.696344122601E+01 0.000000000000E+00 2.791588703228E+03
 -5.035077560631E-01 -7.196645973017E-01 0.000000000000E+00 -2.464181275116E+01 2.768353248005E+03
 0.000000000000E+00 0.000000000000E+00 0.000000000000E+00 0.000000000000E+00 0.000000000000E+00 0.000000000000E+00
 -1.995971549106E+01 3.542748503310E+01 0.000000000000E+00 -4.940128782217E-01 -3.166399245273E-01 0.000000000000E+00 2.788410648164E+03
 -3.389477221787E+01 5.955171005333E+01 0.000000000000E+00 -9.848331708802E-02 6.564711723719E-02 0.000000000000E+00 -2.170959578187E+01 2.826025020298E+03
 0.000000000000E+00 0.000000000000E+00 0.000000000000E+00 0.000000000000E+00 0.000000000000E+00 0.000000000000E+00 0.000000000000E+00 0.000000000000E+00 0.000000000000E+00
 3.795050274841E+01 -6.829822617268E+01 0.000000000000E+00 -1.962570000205E+01 3.485792784711E+01 0.000000000000E+00 3.929418002736E+01 7.195217103301E+01 0.000000000000E+00 2.780142769582E+03
 -3.122987142126E-01 6.504274184189E-01 0.000000000000E+00 -3.327410636514E+01 5.888281383867E+01 0.000000000000E+00 -1.033712199950E+00 -1.683967666986E-01 0.000000000000E+00 -2.164282245225E+01 2.838105161807E+03
 0.000000000000E+00 0.000000000000E+00 0.000000000000E+00 0.000000000000E+00 0.000000000000E+00 0.000000000000E+00 0.000000000000E+00 0.000000000000E+00 0.000000000000E+00 0.000000000000E+00 0.000000000000E+00 0.000000000000E+00
 -6.270967500997E-01 1.263928674633E-01 0.000000000000E+00 -4.249538515887E-01 -7.603170618276E-01 0.000000000000E+00 3.854851753028E+01 -7.571237957293E+01 0.000000000000E+00 -2.480833211663E+01 3.564993710315E+01 0.000000000000E+00 2.647558119120E+03
 1.356644074838E+00 -4.100300836325E-02 0.000000000000E+00 1.008326430806E+00 3.865222472295E-01 0.000000000000E+00 5.001878986191E+00 1.874538090160E+00 0.000000000000E+00 -3.273663834532E+01 6.450008894097E+01 0.000000000000E+00 -2.204033533782E+02 2.873502644723E+03
 0.000000000000E+00 0.000000000000E+00 0.000000000000E+00 0.000000000000E+00 0.000000000000E+00 0.000000000000E+00 0.000000000000E+00 0.000000000000E+00 0.000000000000E+00 0.000000000000E+00 0.000000000000E+00 0.000000000000E+00 0.000000000000E+00 0.000000000000E+00 0.000000000000E+00
 -1.227957392581E+03 4.491748231413E+02 0.000000000000E+00 -4.648948987398E+02 -9.955349622940E+00 0.000000000000E+00 7.935270038206E-01 1.830378093856E-01 0.000000000000E+00 4.432864773325E-01 6.632477050266E-01 0.000000000000E+00 1.225438708577E+00 -1.339884926599E+00 0.000000000000E+00 2.823545396098E+03
 4.436990689732E+02 -7.428521251028E+02 0.000000000000E+00 -8.912925175127E+00 -1.433088736238E+03 0.000000000000E+00 -1.775508111064E-01 4.645426447064E-02 0.000000000000E+00 2.920124653279E-01 -1.785502206789E-01 0.000000000000E+00 1.191544473110E-01 2.530314131809E-01 0.000000000000E+00 -3.822873770882E+00 2.779660478921E+03
 0.000000000000E+00 0.000000000000E+00 0.000000000000E+00 0.000000000000E+00 0.000000000000E+00 0.000000000000E+00 0.000000000000E+00 0.000000000000E+00 0.000000000000E+00 0.000000000000E+00 0.000000000000E+00 0.000000000000E+00 0.000000000000E+00 0.000000000000E+00 0.000000000000E+00 0.000000000000E+00 0.000000000000E+00 0.000000000000E+00
 -1.195859828581E+03 -4.107813735742E+02 0.000000000000E+00 -1.909445831623E-01 1.657572097199E-01 0.000000000000E+00 -1.261598813533E+03 4.480216520794E+02 0.000000000000E+00 -4.818466674636E+02 -9.983935026245E+00 0.000000000000E+00 1.754754412477E-01 -1.708105906479E+00 0.000000000000E+00 -1.939259307142E+01 -3.316888445619E+01 0.000000000000E+00 2.820414570179E+03
 -4.105714854960E+02 -6.979386661721E+02 0.000000000000E+00 5.043655964184E-01 4.942651088786E-01 0.000000000000E+00 4.512182156330E+02 -7.453556527869E+02 0.000000000000E+00 -1.086908908793E+01 -1.512431748957E+03 0.000000000000E+00 1.715000187719E+00 -6.402225660484E-01 0.000000000000E+00 3.389846833607E+01 5.862731296430E+01 0.000000000000E+00 -3.005999417083E+01 2.839376841326E+03
 0.000000000000E+00 0.000000000000E+00 0.000000000000E+00 0.000000000000E+00 0.000000000000E+00 0.000000000000E+00 0.000000000000E+00 0.000000000000E+00 0.000000000000E+00 0.000000000000E+00 0.000000000000E+00 0.000000000000E+00 0.000000000000E+00 0.000000000000E+00 0.000000000000E+00 0.000000000000E+00 0.000000000000E+00 0.000000000000E+00 0.000000000000E+00 0.000000000000E+00 0.000000000000E+00
 -1.059528453951E-01 -3.728138381644E-02 0.000000000000E+00 -1.222872887152E+03 -4.183673915315E+02 0.000000000000E+00 1.143767669479E+00 2.646625840427E-01 0.000000000000E+00 -1.223692953836E+03 4.415002199976E+02 0.000000000000E+00 1.596851856768E+00 -1.622699594730E+00 0.000000000000E+00 3.669535814669E+01 -1.994454360889E-01 0.000000000000E+00 4.195098924391E+01 -7.773382593106E-01 0.000000000000E+00 2.807629017433E+03
 5.027252867395E-02 1.398237494054E-01 0.000000000000E+00 -4.209780173616E+02 -7.031053236115E+02 0.000000000000E+00 1.599703241403E-01 -1.277027693223E-01 0.000000000000E+00 4.400152278979E+02 -7.381803306875E+02 0.000000000000E+00 6.312815824360E-01 -1.094214967984E-01 0.000000000000E+00 -6.679473113075E+01 4.876623871229E-01 0.000000000000E+00 7.022320777457E+01 -1.092907100801E+00 0.000000000000E+00 -2.314376629848E+00 2.808197013937E+03
 0.000000000000E+00 0.000000000000E+00 0.000000000000E+00 0.000000000000E+00 0.000000000000E+00 0.000000000000E+00 0.000000000000E+00 0.000000000000E+00 0.000000000000E+00 0.000000000000E+00 0.000000000000E+00 0.000000000000E+00 0.000000000000E+00 0.000000000000E+00 0.000000000000E+00 0.000000000000E+00 0.000000000000E+00 0.000000000000E+00 0.000000000000E+00 0.000000000000E+00 0.000000000000E+00 0.000000000000E+00 0.000000000000E+00 0.000000000000E+00
 2.320101566963E+00 -1.322560571350E-01 0.000000000000E+00 1.631386734236E+00 8.076715316344E-01 0.000000000000E+00 -1.175254990140E+03 -4.103181690371E+02 0.000000000000E+00 5.744983701398E+00 2.243110486450E+00 0.000000000000E+00 -5.104192908673E+02 -9.276764752490E+00 0.000000000000E+00 -2.449058352760E+00 2.218068066964E-01 0.000000000000E+00 -2.311300803579E+01 -3.610394299343E+01 0.000000000000E+00 -2.772155763003E+00 -4.142779425988E-01 0.000000000000E+00 2.771071424461E+03
 -1.053926397228E+00 2.576399046829E-01 0.000000000000E+00 -9.743054906905E-01 -1.096074047072E-01 0.000000000000E+00 -4.278323067136E+02 -7.123428753746E+02 0.000000000000E+00 -2.488071760868E+00 -9.669132297764E-01 0.000000000000E+00 6.507863164806E+00 -1.628041703435E+03 0.000000000000E+00 9.624253649685E-01 -5.737987503877E-01 0.000000000000E+00 3.672024123119E+01 5.828421388922E+01 0.000000000000E+00 1.064550815628E+00 -3.963511111761E-02 0.000000000000E+00 4.165688223066E+01 3.046526023138E+03
 0.000000000000E+00 0.000000000000E+00 0.000000000000E+00 0.000000000000E+00 0.000000000000E+00 0.000000000000E+00 0.000000000000E+00 0.000000000000E+00 0.000000000000E+00 0.000000000000E+00 0.000000000000E+00 0.000000000000E+00 0.000000000000E+00 0.000000000000E+00 0.000000000000E+00 0.000000000000E+00 0.000000000000E+00 0.000000000000E+00 0.000000000000E+00 0.000000000000E+00 0.000000000000E+00 0.000000000000E+00 0.000000000000E+00 0.000000000000E+00 0.000000000000E+00 0.000000000000E+00 0.000000000000E+00
 6.513022952627E-01 -1.173100606041E-01 0.000000000000E+00 5.428275487691E-01 4.774450550599E-01 0.000000000000E+00 4.455621659990E+00 1.699106689152E+00 0.000000000000E+00 -1.190000671272E+03 -4.164017695175E+02 0.000000000000E+00 -1.334718760789E+03 4.851827426912E+02 0.000000000000E+00 -1.015110715132E+00 7.666838815335E-02 0.000000000000E+00 3.816580485931E+01 -1.434852530616E+00 0.000000000000E+00 -2.080599628286E+01 -3.303878834174E+01 0.000000000000E+00 3.668017800465E+01 3.477336355619E+00 0.000000000000E+00 2.879474415907E+03
 -3.542924884056E-01 4.510858600088E-02 0.000000000000E+00 -3.218164929700E-01 -3.587611154240E-01 0.000000000000E+00 -3.132093604499E+00 -2.210802028719E+00 0.000000000000E+00 -4.120830880768E+02 -7.090782786625E+02 0.000000000000E+00 4.836367129403E+02 -8.127218583959E+02 0.000000000000E+00 6.928727175007E-01 3.221260090282E-02 0.000000000000E+00 -6.807324830322E+01 1.684928575145E+00 0.000000000000E+00 3.579808670968E+01 5.811735882375E+01 0.000000000000E+00 9.070080919796E+01 -1.747114432297E+00 0.000000000000E+00 -8.546041663666E+01 2.841867320810E+03
 0.000000000000E+00 0.000000000000E+00 0.000000000000E+00 0.000000000000E+00 0.000000000000E+00 0.000000000000E+00 0.000000000000E+00 0.000000000000E+00 0.000000000000E+00 0.000000000000E+00 0.000000000000E+00 0.000000000000E+00 0.000000000000E+00 0.000000000000E+00 0.000000000000E+00 0.000000000000E+00 0.000000000000E+00 0.000000000000E+00 0.000000000000E+00 0.000000000000E+00 0.000000000000E+00 0.000000000000E+00 0.000000000000E+00 0.000000000000E+00 0.000000000000E+00 0.000000000000E+00 0.000000000000E+00 0.000000000000E+00 0.000000000000E+00 0.000000000000E+00
 -4.213045516486E-02 1.857012113690E-02 0.000000000000E+00 -1.440955456215E-02 -4.512520560923E-02 0.000000000000E+00 -3.021942920709E-01 -1.214406292257E-01 0.000000000000E+00 -1.953982114340E-01 -1.571859609008E-01 0.000000000000E+00 -5.684790691062E-01 5.751269898549E-01 0.000000000000E+00 2.272122456547E-02 -2.506859288659E-02 0.000000000000E+00 -2.457957609472E-02 1.288010990283E-01 0.000000000000E+00 1.054664700983E-01 1.931441648031E-02 0.000000000000E+00 1.069663325522E+00 -2.824123665411E-01 0.000000000000E+00 4.490152772184E-01 -3.724624952373E-01 0.000000000000E+00 2.810788472747E+03
 4.252654036278E-03 3.787440246837E-02 0.000000000000E+00 1.689845918952E-03 1.154789608039E-02 0.000000000000E+00 -1.813277401305E-02 -6.128524519142E-02 0.000000000000E+00 2.056659350348E-02 1.643361950151E-02 0.000000000000E+00 -8.392453950675E-03 -6.897941144653E-02 0.000000000000E+00 3.855542646580E-02 -8.761918731373E-02 0.000000000000E+00 2.368923290708E-02 -8.649978109151E-02 0.000000000000E+00 1.017907323676E-02 2.824223040352E-03 0.000000000000E+00 -7.148125976911E-02 1.276071954880E-01 0.000000000000E+00 4.360796741297E-03 5.319410680318E-02 0.000000000000E+00 2.034769781874E+00 2.800345543031E+03
 0.000000000000E+00 0.000000000000E+00 0.000000000000E+00 0.000000000000E+00 0.000000000000E+00 0.000000000000E+00 0.000000000000E+00 0.000000000000E+00 0.000000000000E+00 0.000000000000E+00 0.000000000000E+00 0.000000000000E+00 0.000000000000E+00 0.000000000000E+00 0.000000000000E+00 0.000000000000E+00 0.000000000000E+00 0.000000000000E+00 0.000000000000E+00 0.000000000000E+00 0.000000000000E+00 0.000000000000E+00 0.000000000000E+00 0.000000000000E+00 0.000000000000E+00 0.000000000000E+00 0.000000000000E+00 0.000000000000E+00 0.000000000000E+00 0.000000000000E+00 0.000000000000E+00 0.000000000000E+00 0.000000000000E+00
 -2.675765655413E-02 -3.208955055493E-03 0.000000000000E+00 -2.375957922146E-02 -6.301994214082E-02 0.000000000000E+00 -2.489598518208E-01 -6.912236037593E-02 0.000000000000E+00 -1.849285248534E-01 -1.489509021313E-01 0.000000000000E+00 -4.672556199057E-01 4.554865573709E-01 0.000000000000E+00 4.910822361425E-02 5.641596928742E-02 0.000000000000E+00 -2.516848456796E-03 1.717030756352E-01 0.000000000000E+00 7.439274504921E-02 3.328408094600E-02 0.000000000000E+00 8.080465635502E-01 -2.994617952823E-01 0.000000000000E+00 3.590353171287E-01 -3.322735376811E-01 0.000000000000E+00 4.184613317461E+01 7.152579576966E+01 0.000000000000E+00 2.784941860885E+03
 -4.207496413365E-02 -3.208640521613E-03 0.000000000000E+00 -3.925791279984E-02 -8.289051634920E-03 0.000000000000E+00 -1.863585553679E-01 -1.231948091949E-01 0.000000000000E+00 -1.032291957777E-01 -5.470746379450E-02 0.000000000000E+00 -2.678010267326E-01 4.131829227004E-01 0.000000000000E+00 4.681042886380E-02 6.136549820930E-03 0.000000000000E+00 5.123545895945E-02 3.287412088138E-02 0.000000000000E+00 5.823084020063E-02 -8.610082406327E-03 0.000000000000E+00 6.979933257952E-01 -2.936697086677E-01 0.000000000000E+00 2.450666230010E-01 -1.685303901361E-01 0.000000000000E+00 -1.157952446175E+00 -2.023258954723E+00 0.000000000000E+00 2.777843503279E+02 2.857213319014E+03
 0.000000000000E+00 0.000000000000E+00 0.000000000000E+00 0.000000000000E+00 0.000000000000E+00 0.000000000000E+00 0.000000000000E+00 0.000000000000E+00 0.000000000000E+00 0.000000000000E+00 0.000000000000E+00 0.000000000000E+00 0.000000000000E+00 0.000000000000E+00 0.000000000000E+00 0.000000000000E+00 0.000000000000E+00 0.000000000000E+00 0.000000000000E+00 0.000000000000E+00 0.000000000000E+00 0.000000000000E+00 0.000000000000E+00 0.000000000000E+00 0.000000000000E+00 0.000000000000E+00 0.000000000000E+00 0.000000000000E+00 0.000000000000E+00 0.000000000000E+00 0.000000000000E+00 0.000000000000E+00 0.000000000000E+00 0.000000000000E+00 0.000000000000E+00 0.000000000000E+00
 -2.023640777425E+01 -3.396178299536E+01 0.000000000000E+00 3.808475239853E+01 -3.546916269249E-01 0.000000000000E+00 -3.708627609002E-01 -6.523958099095E-02 0.000000000000E+00 -1.996935557425E-01 -2.591819753002E-01 0.000000000000E+00 -7.417061682086E-01 5.096205019206E-01 0.000000000000E+00 -1.249989162975E+03 -4.318731450958E+02 0.000000000000E+00 -1.501933974548E-01 1.089132814500E-01 0.000000000000E+00 2.030050116587E-01 7.772460304670E-03 0.000000000000E+00 1.163545827481E+00 -1.295422889845E-01 0.000000000000E+00 5.957010931713E-01 -3.846411317059E-01 0.000000000000E+00 -1.942123683854E+01 3.437281943991E+01 0.000000000000E+00 -5.330326106100E-02 -6.940392854803E-03 0.000000000000E+00 2.777722922255E+03
 3.611507132042E+01 6.085064377035E+01 0.000000000000E+00 -6.806199436434E+01 5.529485312226E-01 0.000000000000E+00 -1.456302976859E-01 -2.813363820664E-01 0.000000000000E+00 -1.688730394269E-01 -1.105890365323E-01 0.000000000000E+00 -5.116212527637E-01 3.163785684254E-01 0.000000000000E+00 -4.363208996312E+02 -7.202853656857E+02 0.000000000000E+00 9.044827908550E-02 -7.672972401197E-02 0.000000000000E+00 6.216004919406E-02 1.058959183519E-01 0.000000000000E+00 6.102197998588E-01 1.142379177254E-01 0.000000000000E+00 3.346162217573E-01 -2.149178000906E-01 0.000000000000E+00 -3.217608170060E+01 5.721951591203E+01 0.000000000000E+00 -7.429149538603E-02 -2.698882672693E-02 0.000000000000E+00 1.810190096675E+01 2.804924707232E+03
 0.000000000000E+00 0.000000000000E+00 0.000000000000E+00 0.000000000000E+00 0.000000000000E+00 0.000000000000E+00 0.000000000000E+00 0.000000000000E+00 0.000000000000E+00 0.000000000000E+00 0.000000000000E+00 0.000000000000E+00 0.000000000000E+00 0.000000000000E+00 0.000000000000E+00 0.000000000000E+00 0.000000000000E+00 0.000000000000E+00 0.000000000000E+00 0.000000000000E+00 0.000000000000E+00 0.000000000000E+00 0.000000000000E+00 0.000000000000E+00 0.000000000000E+00 0.000000000000E+00 0.000000000000E+00 0.000000000000E+00 0.000000000000E+00 0.000000000000E+00 0.000000000000E+00 0.000000000000E+00 0.000000000000E+00 0.000000000000E+00 0.000000000000E+00 0.000000000000E+00 0.000000000000E+00 0.000000000000E+00 0.000000000000E+00
 -1.364020651073E-01 -4.006231440842E-02 0.000000000000E+00 -1.896572463167E+01 -3.135491994440E+01 0.000000000000E+00 -6.601507549993E-01 -1.931427181712E-01 0.000000000000E+00 -4.255755435450E-01 -2.959690795719E-01 0.000000000000E+00 -1.084270918453E+00 1.227227480961E+00 0.000000000000E+00 3.705897516613E-02 1.649064418030E-01 0.000000000000E+00 4.442612257338E-02 3.301949444701E-01 0.000000000000E+00 1.945155047566E-01 4.452061504292E-02 0.000000000000E+00 2.139192338832E+00 -8.359512900619E-01 0.000000000000E+00 8.721126405674E-01 -7.787045213183E-01 0.000000000000E+00 3.906143144952E+01 -6.948079557223E+01 0.000000000000E+00 -2.300887022959E+01 4.057429943382E+01 0.000000000000E+00 4.016470547094E+01 6.672701539200E+01 0.000000000000E+00 2.771744080084E+03
 5.050591094556E-03 -3.264698876665E-03 0.000000000000E+00 3.358405529848E+01 5.569647620552E+01 0.000000000000E+00 -1.993810000209E-01 -1.305293489483E-01 0.000000000000E+00 -1.307092868689E-01 -1.468398479773E-01 0.000000000000E+00 -3.944528195044E-01 4.349570844306E-01 0.000000000000E+00 2.871832453505E-01 1.688726671847E-01 0.000000000000E+00 -2.624480490439E-03 1.292358320537E-01 0.000000000000E+00 7.025690308706E-02 -3.402446492407E-02 0.000000000000E+00 7.615759376400E-01 -2.516164462268E-01 0.000000000000E+00 3.193009224484E-01 -2.002077743930E-01 0.000000000000E+00 -1.899149816230E-01 3.373832235087E-01 0.000000000000E+00 -4.191856562998E+01 7.399276277928E+01 0.000000000000E+00 -2.768400143216E-01 -4.541551107621E-01 0.000000000000E+00 -3.915678431766E+01 2.757795118409E+03
 0.000000000000E+00 0.000000000000E+00 0.000000000000E+00 0.000000000000E+00 0.000000000000E+00 0.000000000000E+00 0.000000000000E+00 0.000000000000E+00 0.000000000000E+00 0.000000000000E+00 0.000000000000E+00 0.000000000000E+00 0.000000000000E+00 0.000000000000E+00 0.000000000000E+00 0.000000000000E+00 0.000000000000E+00 0.000000000000E+00 0.000000000000E+00 0.000000000000E+00 0.000000000000E+00 0.000000000000E+00 0.000000000000E+00 0.000000000000E+00 0.000000000000E+00 0.000000000000E+00 0.000000000000E+00 0.000000000000E+00 0.000000000000E+00 0.000000000000E+00 0.000000000000E+00 0.000000000000E+00 0.000000000000E+00 0.000000000000E+00 0.000000000000E+00 0.000000000000E+00 0.000000000000E+00 0.000000000000E+00 0.000000000000E+00 0.000000000000E+00 0.000000000000E+00 0.000000000000E+00
 4.308712423222E-02 -1.014277259638E-02 0.000000000000E+00 3.330110013955E-02 8.360699502204E-02 0.000000000000E+00 4.150014569640E-01 1.734794188295E-01 0.000000000000E+00 2.808110265569E-01 2.267546024475E-01 0.000000000000E+00 7.670595096775E-01 -7.400389603159E-01 0.000000000000E+00 -7.724783029359E-02 -3.569168056235E-02 0.000000000000E+00 -3.817216645841E-03 -2.198140209353E-01 0.000000000000E+00 -1.329266927101E-01 -4.510811834892E-02 0.000000000000E+00 -1.338498332163E+00 4.182241607394E-01 0.000000000000E+00 -5.966070040409E-01 5.073619158213E-01 0.000000000000E+00 -1.231261491275E+03 4.358184143798E+02 0.000000000000E+00 -5.071397485587E+02 -2.024562011047E+01 0.000000000000E+00 4.330595886412E-02 6.209498703207E-02 0.000000000000E+00 1.496209686459E-01 1.603893152749E-01 0.000000000000E+00 2.843370002960E+03
 3.780352138076E-02 -8.323230391203E-03 0.000000000000E+00 1.840792345696E-02 -1.545187788069E-02 0.000000000000E+00 1.373770606423E-01 1.454133419755E-01 0.000000000000E+00 5.493984246938E-02 2.301015978922E-02 0.000000000000E+00 1.834541792975E-01 -2.952092884853E-01 0.000000000000E+00 -3.399139968812E-02 5.520575321651E-02 0.000000000000E+00 -4.936479894269E-02 3.006427557415E-02 0.000000000000E+00 -4.670826583822E-02 6.807610955810E-03 0.000000000000E+00 -5.290610452127E-01 1.792359960019E-01 0.000000000000E+00 -1.769686629291E-01 9.359342456831E-02 0.000000000000E+00 4.379054499835E+02 -7.349598372560E+02 0.000000000000E+00 -3.021756558174E+01 -1.541312470099E+03 0.000000000000E+00 -4.580762954895E-03 -4.375974869348E-02 0.000000000000E+00 1.157394201401E-01 -5.165363701038E-02 0.000000000000E+00 2.880867139561E+01 2.892501433978E+03
 0.000000000000E+00 0.000000000000E+00 0.000000000000E+00 0.000000000000E+00 0.000000000000E+00 0.000000000000E+00 0.000000000000E+00 0.000000000000E+00 0.000000000000E+00 0.000000000000E+00 0.000000000000E+00 0.000000000000E+00 0.000000000000E+00 0.000000000000E+00 0.000000000000E+00 0.000000000000E+00 0.000000000000E+00 0.000000000000E+00 0.000000000000E+00 0.000000000000E+00 0.000000000000E+00 0.000000000000E+00 0.000000000000E+00 0.000000000000E+00 0.000000000000E+00 0.000000000000E+00 0.000000000000E+00 0.000000000000E+00 0.000000000000E+00 0.000000000000E+00 0.000000000000E+00 0.000000000000E+00 0.000000000000E+00 0.000000000000E+00 0.000000000000E+00 0.000000000000E+00 0.000000000000E+00 0.000000000000E+00 0.000000000000E+00 0.000000000000E+00 0.000000000000E+00 0.000000000000E+00 0.000000000000E+00 0.000000000000E+00 0.000000000000E+00
 -1.296531293356E-03 8.454877212555E-03 0.000000000000E+00 7.139584295927E-02 1.521236551006E-01 0.000000000000E+00 3.344902351314E-01 2.412732713094E-02 0.000000000000E+00 2.071270669346E-01 2.402178977212E-01 0.000000000000E+00 6.292274206232E-01 -5.166312101494E-01 0.000000000000E+00 -1.968419783285E+01 3.480441606499E+01 0.000000000000E+00 1.149390766101E-01 -2.549221649478E-01 0.000000000000E+00 -1.149318917292E-01 -1.114094782155E-02 0.000000000000E+00 -1.002278991915E+00 3.009235436527E-01 0.000000000000E+00 -4.820247833642E-01 4.092963275206E-01 0.000000000000E+00 -1.225462072120E+03 -4.231774074740E+02 0.000000000000E+00 -5.584335507201E-02 1.144909352586E-01 0.000000000000E+00 -1.170737696425E+03 4.253928855175E+02 0.000000000000E+00 -4.720244207897E+02 -1.206716437161E+01 0.000000000000E+00 -1.968600505211E+01 -3.374021994670E+01 0.000000000000E+00 2.753087672147E+03
 1.307808007161E-02 -8.478149443727E-02 0.000000000000E+00 9.836224076636E-02 -5.390875344596E-02 0.000000000000E+00 1.178679654259E-02 1.693807507898E-01 0.000000000000E+00 -3.704140299688E-02 -1.617242154756E-02 0.000000000000E+00 1.939134922651E-02 -2.014890446821E-01 0.000000000000E+00 -3.281123939883E+01 5.838498835548E+01 0.000000000000E+00 -5.827326745027E-02 1.750974913861E-01 0.000000000000E+00 -1.876690782214E-02 2.184180849646E-02 0.000000000000E+00 -3.838010395400E-01 2.226586823454E-02 0.000000000000E+00 -5.752162437240E-02 -7.061968889837E-02 0.000000000000E+00 -4.265037769794E+02 -7.099892736600E+02 0.000000000000E+00 1.700432380120E-01 1.144883585516E-01 0.000000000000E+00 4.266448132055E+02 -7.190948191760E+02 0.000000000000E+00 -2.712405974428E+00 -1.497232426497E+03 0.000000000000E+00 3.469013738551E+01 5.968901343401E+01 0.000000000000E+00 2.919903065176E+00 2.808319396056E+03
 0.000000000000E+00 0.000000000000E+00 0.000000000000E+00 0.000000000000E+00 0.000000000000E+00 0.000000000000E+00 0.000000000000E+00 0.000000000000E+00 0.000000000000E+00 0.000000000000E+00 0.000000000000E+00 0.000000000000E+00 0.000000000000E+00 0.000000000000E+00 0.000000000000E+00 0.000000000000E+00 0.000000000000E+00 0.000000000000E+00 0.000000000000E+00 0.000000000000E+00 0.000000000000E+00 0.000000000000E+00 0.000000000000E+00 0.000000000000E+00 0.000000000000E+00 0.000000000000E+00 0.000000000000E+00 0.000000000000E+00 0.000000000000E+00 0.000000000000E+00 0.000000000000E+00 0.000000000000E+00 0.000000000000E+00 0.000000000000E+00 0.000000000000E+00 0.000000000000E+00 0.000000000000E+00 0.000000000000E+00 0.000000000000E+00 0.000000000000E+00 0.000000000000E+00 0.000000000000E+00 0.000000000000E+00 0.000000000000E+00 0.000000000000E+00 0.000000000000E+00 0.000000000000E+00 0.000000000000E+00
 7.606455234503E-02 5.998422613543E-03 0.000000000000E+00 6.328014080364E-02 5.731100044127E-02 0.000000000000E+00 4.110590494631E-01 1.359697670684E-01 0.000000000000E+00 2.757855383948E-01 1.701222862010E-01 0.000000000000E+00 6.668952662582E-01 -7.990690289719E-01 0.000000000000E+00 -9.638883948763E-02 -4.314609936074E-02 0.000000000000E+00 -5.776112419848E-02 -1.715874075030E-01 0.000000000000E+00 -1.235211313334E-01 -2.358510059110E-02 0.000000000000E+00 -1.402799663747E+00 5.640772655655E-01 0.000000000000E+00 -5.501792072519E-01 4.655320543952E-01 0.000000000000E+00 3.699943666227E-02 1.047911687537E-02 0.000000000000E+00 -1.509679754473E+03 -5.259449182388E+02 0.000000000000E+00 7.198523116840E-02 7.314190641661E-02 0.000000000000E+00 -1.274557187098E+03 4.372296737874E+02 0.000000000000E+00 4.840501625275E+01 -1.337271370127E+00 0.000000000000E+00 3.959124679326E+01 -2.377346302815E-01 0.000000000000E+00 3.074451842456E+03
 -8.681578226257E-03 2.299079276961E-03 0.000000000000E+00 -9.036028044469E-04 2.763083603188E-02 0.000000000000E+00 1.802776627224E-02 -2.314267044564E-02 0.000000000000E+00 2.800306212034E-02 3.520220282368E-02 0.000000000000E+00 5.468579211788E-02 -4.156362192133E-02 0.000000000000E+00 5.529654904956E-03 -4.301336496755E-02 0.000000000000E+00 1.632951713634E-02 -6.068357450129E-02 0.000000000000E+00 -5.198703554545E-05 -9.070864149822E-03 0.000000000000E+00 -6.290645141099E-02 8.269803738367E-02 0.000000000000E+00 -3.674306182757E-02 5.437514345355E-02 0.000000000000E+00 -3.283200371706E-02 4.567678177009E-02 0.000000000000E+00 -5.357110200740E+02 -8.625233664318E+02 0.000000000000E+00 1.426555301519E-02 4.023145108583E-02 0.000000000000E+00 4.221325814803E+02 -7.285637421946E+02 0.000000000000E+00 -8.605400425062E+01 2.412878497535E+00 0.000000000000E+00 7.188690078725E+01 -4.931291905977E-01 0.000000000000E+00 8.825368979099E+01 2.538609561453E+03
 0.000000000000E+00 0.000000000000E+00 0.000000000000E+00 0.000000000000E+00 0.000000000000E+00 0.000000000000E+00 0.000000000000E+00 0.000000000000E+00 0.000000000000E+00 0.000000000000E+00 0.000000000000E+00 0.000000000000E+00 0.000000000000E+00 0.000000000000E+00 0.000000000000E+00 0.000000000000E+00 0.000000000000E+00 0.000000000000E+00 0.000000000000E+00 0.000000000000E+00 0.000000000000E+00 0.000000000000E+00 0.000000000000E+00 0.000000000000E+00 0.000000000000E+00 0.000000000000E+00 0.000000000000E+00 0.000000000000E+00 0.000000000000E+00 0.000000000000E+00 0.000000000000E+00 0.000000000000E+00 0.000000000000E+00 0.000000000000E+00 0.000000000000E+00 0.000000000000E+00 0.000000000000E+00 0.000000000000E+00 0.000000000000E+00 0.000000000000E+00 0.000000000000E+00 0.000000000000E+00 0.000000000000E+00 0.000000000000E+00 0.000000000000E+00 0.000000000000E+00 0.000000000000E+00 0.000000000000E+00 0.000000000000E+00 0.000000000000E+00 0.000000000000E+00
 1.863287969429E-01 6.865657375545E-02 0.000000000000E+00 -1.224314578358E+03 4.478791962657E+02 0.000000000000E+00 6.438190479544E-01 3.261483285324E-01 0.000000000000E+00 5.166192527406E-01 1.980602657313E-01 0.000000000000E+00 9.903984199645E-01 -1.349402051725E+00 0.000000000000E+00 4.073776871828E+01 -4.274336755710E-01 0.000000000000E+00 -1.803247360532E-01 -3.058484170278E-01 0.000000000000E+00 -2.010577126547E+01 3.573763698786E+01 0.000000000000E+00 -2.135822647125E+00 1.047847314733E+00 0.000000000000E+00 -8.087913303152E-01 8.356435673941E-01 0.000000000000E+00 9.226521564864E-02 -2.598912003987E-02 0.000000000000E+00 6.640735913392E-02 4.639535218679E-02 0.000000000000E+00 -6.981824566390E-02 2.380575599396E-02 0.000000000000E+00 -1.141567010216E+03 -3.875786816147E+02 0.000000000000E+00 -1.038622336812E-01 -2.745344575556E-02 0.000000000000E+00 3.637365382411E+01 -1.173294301837E-01 0.000000000000E+00 -1.782949594048E+01 -3.223572875200E+01 0.000000000000E+00 2.731401087492E+03
 5.913113202913E-02 2.973738238684E-02 0.000000000000E+00 4.574247838963E+02 -7.451108217159E+02 0.000000000000E+00 8.704298220712E-01 2.857232349306E-01 0.000000000000E+00 5.941291120940E-01 6.109598504910E-01 0.000000000000E+00 1.659055477571E+00 -1.272345015994E+00 0.000000000000E+00 6.660918982346E+01 -8.273746664113E-01 0.000000000000E+00 4.672133498351E-02 -5.397546796203E-01 0.000000000000E+00 -3.348426005957E+01 5.934256670357E+01 0.000000000000E+00 -2.503330766495E+00 5.779653002061E-01 0.000000000000E+00 -1.330646807911E+00 8.931351592697E-01 0.000000000000E+00 1.223698973726E-01 6.013236290695E-02 0.000000000000E+00 3.495745436885E-02 4.106494720959E-02 0.000000000000E+00 1.517483251496E-01 2.479179807208E-01 0.000000000000E+00 -3.859890325084E+02 -6.661006727450E+02 0.000000000000E+00 -1.124079932313E-01 -7.820643852818E-02 0.000000000000E+00 -6.527180278351E+01 2.555278302953E-01 0.000000000000E+00 3.161836110940E+01 5.761816002490E+01 0.000000000000E+00 -1.082814751476E+01 2.820383550814E+03
 0.000000000000E+00 0.000000000000E+00 0.000000000000E+00 0.000000000000E+00 0.000000000000E+00 0.000000000000E+00 0.000000000000E+00 0.000000000000E+00 0.000000000000E+00 0.000000000000E+00 0.000000000000E+00 0.000000000000E+00 0.000000000000E+00 0.000000000000E+00 0.000000000000E+00 0.000000000000E+00 0.000000000000E+00 0.000000000000E+00 0.000000000000E+00 0.000000000000E+00 0.000000000000E+00 0.000000000000E+00 0.000000000000E+00 0.000000000000E+00 0.000000000000E+00 0.000000000000E+00 0.000000000000E+00 0.000000000000E+00 0.000000000000E+00 0.000000000000E+00 0.000000000000E+00 0.000000000000E+00 0.000000000000E+00 0.000000000000E+00 0.000000000000E+00 0.000000000000E+00 0.000000000000E+00 0.000000000000E+00 0.000000000000E+00 0.000000000000E+00 0.000000000000E+00 0.000000000000E+00 0.000000000000E+00 0.000000000000E+00 0.000000000000E+00 0.000000000000E+00 0.000000000000E+00 0.000000000000E+00 0.000000000000E+00 0.000000000000E+00 0.000000000000E+00 0.000000000000E+00 0.000000000000E+00 0.000000000000E+00