#BIOSYM hessian 1
@Type: Hessian Update
@Units
 distance: 	A
 energy: 	Kcal/Mol
#header
@natom 69

#label
C1      C2      C3      C4      C5      C6      C7      C8      C9      C10     C11     C12     C13     C14     C15     C16     C17     C18     C19     C20     C21     C22     C23     H24     C25     C26     C27     C28     C29     C30     C31     C32     C33     C34     C35     C36     C37     C38     C39     C40     C41     C42     C43     C44     C45     C46     C47     C48     C49     H50     H51     H52     C53     H54     H55     H56     H57     H58     H59     H60     H61     H62     H63     H64     H65     H66     O67     O68     H69

#element
C  C  C  C  C  C  C  C  C  C  C  C  C  C  C  C  C  C  C  C  C  C  C  H  C  C  C  C  C  C  C  C  C  C  C  C  C  C  C  C  C  C  C  C  C  C  C  C  C  H  H  H  C  H  H  H  H  H  H  H  H  H  H  H  H  H  O  O  H 

#matrix
207
 2.239849971905E+03
 5.808182550740E-01 2.245447626795E+03
 0.000000000000E+00 0.000000000000E+00 2.240846120721E+03
 -5.344661412755E-01 2.256608888946E+00 0.000000000000E+00 2.235517749037E+03
 2.449105928717E+00 -5.054856486625E+00 0.000000000000E+00 2.816042055500E+00 2.235955628045E+03
 0.000000000000E+00 0.000000000000E+00 0.000000000000E+00 0.000000000000E+00 0.000000000000E+00 2.240846120721E+03
 -9.818990765551E-01 4.794543016855E+00 0.000000000000E+00 -4.503830639818E+00 2.082140884274E+00 0.000000000000E+00 2.239651998826E+03
 3.376092304323E+00 -3.732861371422E+00 0.000000000000E+00 -1.509765961908E+00 -5.848150573871E+00 0.000000000000E+00 -1.133214420531E+00 2.228631549131E+03
 0.000000000000E+00 0.000000000000E+00 0.000000000000E+00 0.000000000000E+00 0.000000000000E+00 0.000000000000E+00 0.000000000000E+00 0.000000000000E+00 2.240846120721E+03
 -8.006684909079E-01 1.664423471887E+00 0.000000000000E+00 -1.865896348557E+00 2.142537524563E+00 0.000000000000E+00 -1.039340621272E+00 1.532286596557E+00 0.000000000000E+00 2.239912162538E+03
 1.976373733189E+00 -5.228414201305E+00 0.000000000000E+00 7.507508213961E+00 -5.972869458190E+00 0.000000000000E+00 6.176244937288E+00 -1.732229506663E+00 0.000000000000E+00 3.298313211117E+00 2.229092796417E+03
 0.000000000000E+00 0.000000000000E+00 0.000000000000E+00 0.000000000000E+00 0.000000000000E+00 0.000000000000E+00 0.000000000000E+00 0.000000000000E+00 0.000000000000E+00 0.000000000000E+00 0.000000000000E+00 2.240846120721E+03
 -4.777472320589E-01 2.191352475096E+00 0.000000000000E+00 5.073279428749E-01 -3.257851380703E-01 0.000000000000E+00 2.034914236946E+00 4.994248236104E-01 0.000000000000E+00 5.190643499318E-01 -7.640074017587E-01 0.000000000000E+00 2.241763870105E+03
 2.159187119501E+00 -4.473373621013E+00 0.000000000000E+00 7.886202701176E+00 -7.223783549566E+00 0.000000000000E+00 6.590196252111E+00 -3.091642819901E+00 0.000000000000E+00 3.796798030387E+00 -1.289482988867E+01 0.000000000000E+00 -8.074729372204E-01 2.226409819273E+03
 0.000000000000E+00 0.000000000000E+00 0.000000000000E+00 0.000000000000E+00 0.000000000000E+00 0.000000000000E+00 0.000000000000E+00 0.000000000000E+00 0.000000000000E+00 0.000000000000E+00 0.000000000000E+00 0.000000000000E+00 0.000000000000E+00 0.000000000000E+00 2.240846120721E+03
 -1.357687493988E-01 -2.452524956216E+00 0.000000000000E+00 -5.006359629730E+00 4.234181407238E+00 0.000000000000E+00 -5.778078593351E+00 -1.920239742759E-01 0.000000000000E+00 -2.045984264499E+00 7.859602324081E+00 0.000000000000E+00 -7.390321941625E-01 7.624951939608E+00 0.000000000000E+00 2.239371866636E+03
 1.987854924170E+00 -2.130548215785E+00 0.000000000000E+00 -6.218943702888E-02 -3.747691651760E+00 0.000000000000E+00 7.288687466496E-01 -6.717302481187E+00 0.000000000000E+00 1.187576267578E+00 -2.085547929342E+00 0.000000000000E+00 8.223764782658E-01 -2.619379349880E+00 0.000000000000E+00 2.715866670881E-01 2.237069635870E+03
 0.000000000000E+00 0.000000000000E+00 0.000000000000E+00 0.000000000000E+00 0.000000000000E+00 0.000000000000E+00 0.000000000000E+00 0.000000000000E+00 0.000000000000E+00 0.000000000000E+00 0.000000000000E+00 0.000000000000E+00 0.000000000000E+00 0.000000000000E+00 0.000000000000E+00 0.000000000000E+00 0.000000000000E+00 2.240846120721E+03
 -1.679977193571E+00 4.100418987594E+00 0.000000000000E+00 -1.330765912221E+00 2.784712004387E+00 0.000000000000E+00 -1.492274390551E+00 4.089374414422E+00 0.000000000000E+00 -1.521662245975E+00 3.161163132358E+00 0.000000000000E+00 4.788151560723E-03 4.386096528715E+00 0.000000000000E+00 -3.216372772229E+00 2.328534557665E+00 0.000000000000E+00 2.239999534418E+03
 1.980442618930E+00 -2.871528215057E+00 0.000000000000E+00 5.553270183024E+00 -6.236491868302E+00 0.000000000000E+00 5.837486859264E+00 -4.030587723926E+00 0.000000000000E+00 3.098998171938E+00 -9.727137383501E+00 0.000000000000E+00 4.104091940362E-01 -1.063830193267E+01 0.000000000000E+00 4.835444160726E+00 -2.784379159836E+00 0.000000000000E+00 3.581970593227E+00 2.232974249283E+03
 0.000000000000E+00 0.000000000000E+00 0.000000000000E+00 0.000000000000E+00 0.000000000000E+00 0.000000000000E+00 0.000000000000E+00 0.000000000000E+00 0.000000000000E+00 0.000000000000E+00 0.000000000000E+00 0.000000000000E+00 0.000000000000E+00 0.000000000000E+00 0.000000000000E+00 0.000000000000E+00 0.000000000000E+00 0.000000000000E+00 0.000000000000E+00 0.000000000000E+00 2.240846120721E+03
 -4.782833287105E-01 2.230188059858E+00 0.000000000000E+00 -4.291949205168E+00 2.187190032386E+00 0.000000000000E+00 -3.601912229741E+00 -1.244504885895E+00 0.000000000000E+00 -1.523898297192E+00 6.006041120978E+00 0.000000000000E+00 4.812061726151E-01 6.412577677928E+00 0.000000000000E+00 -4.338645404085E+00 -4.699291198237E-02 0.000000000000E+00 -8.625232865221E-01 4.533252490547E+00 0.000000000000E+00 2.237438548228E+03
 1.831064766648E+00 -4.566597339634E+00 0.000000000000E+00 5.572084053260E+00 -5.079708874486E+00 0.000000000000E+00 4.732759827099E+00 -2.305661710344E+00 0.000000000000E+00 2.662561967611E+00 -9.081516651247E+00 0.000000000000E+00 -5.212734530576E-01 -1.010132428852E+01 0.000000000000E+00 6.118397475628E+00 -2.257898521859E+00 0.000000000000E+00 2.543890771775E+00 -7.802717122306E+00 0.000000000000E+00 4.387609076262E+00 2.233894362628E+03
 0.000000000000E+00 0.000000000000E+00 0.000000000000E+00 0.000000000000E+00 0.000000000000E+00 0.000000000000E+00 0.000000000000E+00 0.000000000000E+00 0.000000000000E+00 0.000000000000E+00 0.000000000000E+00 0.000000000000E+00 0.000000000000E+00 0.000000000000E+00 0.000000000000E+00 0.000000000000E+00 0.000000000000E+00 0.000000000000E+00 0.000000000000E+00 0.000000000000E+00 0.000000000000E+00 0.000000000000E+00 0.000000000000E+00 2.240846120721E+03
 -6.406279589412E-01 6.085674387682E+00 0.000000000000E+00 -3.494316476465E+00 2.992663816618E-03 0.000000000000E+00 -1.767299403079E+00 -2.812566768882E+00 0.000000000000E+00 -7.992309681226E-01 3.925456549674E+00 0.000000000000E+00 1.326580405183E+00 4.498144887312E+00 0.000000000000E+00 -6.481806159290E+00 -4.752992787369E-01 0.000000000000E+00 1.597835273558E+00 3.786924723477E+00 0.000000000000E+00 -2.423530775532E+00 2.403290138917E+00 0.000000000000E+00 2.241771803346E+03
 2.626973777509E+00 -4.238557357140E+00 0.000000000000E+00 5.121042176974E+00 -7.108281654928E+00 0.000000000000E+00 5.193094235897E+00 -6.303072356778E+00 0.000000000000E+00 3.435506640684E+00 -9.789401976391E+00 0.000000000000E+00 1.066194187540E-01 -1.140893244103E+01 0.000000000000E+00 5.353351234688E+00 -3.928920953726E+00 0.000000000000E+00 4.046267593074E+00 -8.653465511580E+00 0.000000000000E+00 4.105672517176E+00 -7.914562905185E+00 0.000000000000E+00 2.163763507135E+00 2.230922005396E+03
 0.000000000000E+00 0.000000000000E+00 0.000000000000E+00 0.000000000000E+00 0.000000000000E+00 0.000000000000E+00 0.000000000000E+00 0.000000000000E+00 0.000000000000E+00 0.000000000000E+00 0.000000000000E+00 0.000000000000E+00 0.000000000000E+00 0.000000000000E+00 0.000000000000E+00 0.000000000000E+00 0.000000000000E+00 0.000000000000E+00 0.000000000000E+00 0.000000000000E+00 0.000000000000E+00 0.000000000000E+00 0.000000000000E+00 0.000000000000E+00 0.000000000000E+00 0.000000000000E+00 2.240846120721E+03
 -4.621011873648E-01 4.962626950598E-01 0.000000000000E+00 -1.061742742607E+00 1.515665223174E+00 0.000000000000E+00 -2.022904378018E+00 1.281927285375E+00 0.000000000000E+00 -9.551821107126E-01 2.073691180060E+00 0.000000000000E+00 -5.635070209544E-01 2.488262424290E+00 0.000000000000E+00 -1.024249856777E+00 5.919470915949E-01 0.000000000000E+00 -3.992649319752E-01 1.493146548875E+00 0.000000000000E+00 -7.987205508912E-01 1.550236030764E+00 0.000000000000E+00 -3.451507828329E-01 1.734988268684E+00 0.000000000000E+00 2.241008552534E+03
 1.566812499886E+00 -5.480108411498E+00 0.000000000000E+00 7.848161577041E+00 -5.036026514785E+00 0.000000000000E+00 6.445866081440E+00 3.127301536439E-01 0.000000000000E+00 3.120818364065E+00 -1.159058939121E+01 0.000000000000E+00 -9.544581014461E-01 -1.265324885286E+01 0.000000000000E+00 8.549526494250E+00 -1.129194450002E+00 0.000000000000E+00 2.125430241376E+00 -9.364416570301E+00 0.000000000000E+00 6.179929129929E+00 -8.605327844362E+00 0.000000000000E+00 3.686233723142E+00 -8.832964630783E+00 0.000000000000E+00 1.727974403294E+00 2.229359603917E+03
 0.000000000000E+00 0.000000000000E+00 0.000000000000E+00 0.000000000000E+00 0.000000000000E+00 0.000000000000E+00 0.000000000000E+00 0.000000000000E+00 0.000000000000E+00 0.000000000000E+00 0.000000000000E+00 0.000000000000E+00 0.000000000000E+00 0.000000000000E+00 0.000000000000E+00 0.000000000000E+00 0.000000000000E+00 0.000000000000E+00 0.000000000000E+00 0.000000000000E+00 0.000000000000E+00 0.000000000000E+00 0.000000000000E+00 0.000000000000E+00 0.000000000000E+00 0.000000000000E+00 0.000000000000E+00 0.000000000000E+00 0.000000000000E+00 2.240846120721E+03
 -1.157951178022E+00 4.628549570854E+00 0.000000000000E+00 -3.371437904199E+00 1.873749260056E+00 0.000000000000E+00 -1.810388031673E+00 -3.140742254484E-01 0.000000000000E+00 -8.363952110646E-01 4.744548232413E+00 0.000000000000E+00 7.417185699601E-01 4.603845802581E+00 0.000000000000E+00 -4.535430610093E+00 1.257668906714E+00 0.000000000000E+00 -5.661009486496E-01 4.515505382867E+00 0.000000000000E+00 -2.563614632508E+00 3.585927840529E+00 0.000000000000E+00 -1.268118947906E+00 3.516636036352E+00 0.000000000000E+00 -1.015613929068E+00 4.693242199690E+00 0.000000000000E+00 2.237970636437E+03
 1.717747095936E+00 -9.836273417155E+00 0.000000000000E+00 6.794641648143E-02 1.696559378762E+00 0.000000000000E+00 -3.124004773660E+00 9.037502038655E-01 0.000000000000E+00 -1.262281048596E+00 9.663189234381E-01 0.000000000000E+00 -1.601660162441E+00 1.829478339321E+00 0.000000000000E+00 5.158433639818E+00 -1.932434542464E+00 0.000000000000E+00 -2.670045879198E+00 -1.849362080750E+00 0.000000000000E+00 -5.164008900531E-01 9.567928015614E-01 0.000000000000E+00 -3.888092165604E+00 9.177997599730E-01 0.000000000000E+00 4.043266555871E-01 1.621766428499E+00 0.000000000000E+00 1.104288211856E+00 2.240681786959E+03
 0.000000000000E+00 0.000000000000E+00 0.000000000000E+00 0.000000000000E+00 0.000000000000E+00 0.000000000000E+00 0.000000000000E+00 0.000000000000E+00 0.000000000000E+00 0.000000000000E+00 0.000000000000E+00 0.000000000000E+00 0.000000000000E+00 0.000000000000E+00 0.000000000000E+00 0.000000000000E+00 0.000000000000E+00 0.000000000000E+00 0.000000000000E+00 0.000000000000E+00 0.000000000000E+00 0.000000000000E+00 0.000000000000E+00 0.000000000000E+00 0.000000000000E+00 0.000000000000E+00 0.000000000000E+00 0.000000000000E+00 0.000000000000E+00 0.000000000000E+00 0.000000000000E+00 0.000000000000E+00 2.240846120721E+03
 -1.360523102615E+00 3.166880673011E+00 0.000000000000E+00 -1.451925163291E+00 2.409011467150E+00 0.000000000000E+00 -9.842756975175E-01 2.739822825232E+00 0.000000000000E+00 -9.310959054407E-01 2.979080250720E+00 0.000000000000E+00 1.588328510279E-01 3.351265620397E+00 0.000000000000E+00 -2.354502222024E+00 2.128492033422E+00 0.000000000000E+00 -1.177689559601E+00 3.266974598466E+00 0.000000000000E+00 -1.071716935274E+00 2.462930417276E+00 0.000000000000E+00 7.191104215272E-02 3.360205681766E+00 0.000000000000E+00 -7.163905593244E-01 2.435099017667E+00 0.000000000000E+00 -1.389766406948E+00 1.144151294739E-01 0.000000000000E+00 2.239499029770E+03
 3.142935140282E+00 -8.236963356106E+00 0.000000000000E+00 5.340852275595E+00 -6.154217447911E+00 0.000000000000E+00 3.894103545589E+00 -5.077169524523E+00 0.000000000000E+00 2.822498790008E+00 -9.437626977716E+00 0.000000000000E+00 -7.615341997434E-01 -1.065565078980E+01 0.000000000000E+00 7.636373654282E+00 -4.403034523894E+00 0.000000000000E+00 2.754141472056E+00 -9.382673377717E+00 0.000000000000E+00 4.022603410763E+00 -7.404350077328E+00 0.000000000000E+00 6.128501012447E-01 -9.332755744348E+00 0.000000000000E+00 1.905703920240E+00 -8.254632325362E+00 0.000000000000E+00 3.895161812307E+00 1.248864748133E+00 0.000000000000E+00 3.208724419642E+00 2.232412239205E+03
 0.000000000000E+00 0.000000000000E+00 0.000000000000E+00 0.000000000000E+00 0.000000000000E+00 0.000000000000E+00 0.000000000000E+00 0.000000000000E+00 0.000000000000E+00 0.000000000000E+00 0.000000000000E+00 0.000000000000E+00 0.000000000000E+00 0.000000000000E+00 0.000000000000E+00 0.000000000000E+00 0.000000000000E+00 0.000000000000E+00 0.000000000000E+00 0.000000000000E+00 0.000000000000E+00 0.000000000000E+00 0.000000000000E+00 0.000000000000E+00 0.000000000000E+00 0.000000000000E+00 0.000000000000E+00 0.000000000000E+00 0.000000000000E+00 0.000000000000E+00 0.000000000000E+00 0.000000000000E+00 0.000000000000E+00 0.000000000000E+00 0.000000000000E+00 2.240846120721E+03
 -1.046916273978E+00 -1.178207032407E+00 0.000000000000E+00 -6.867134626550E-01 3.826471297247E+00 0.000000000000E+00 -2.919523102329E+00 5.224194540275E+00 0.000000000000E+00 -1.743229856327E+00 2.986298286337E+00 0.000000000000E+00 -1.454057035460E+00 3.761332344574E+00 0.000000000000E+00 6.440654672804E-01 2.189957055264E+00 0.000000000000E+00 -2.365351917349E+00 2.184017664376E+00 0.000000000000E+00 -6.497156512045E-01 2.642621488434E+00 0.000000000000E+00 -1.068274480175E+00 3.735889480643E+00 0.000000000000E+00 -4.325647806836E-02 2.293528585203E+00 0.000000000000E+00 -1.295669252004E+00 1.824694122011E+00 0.000000000000E+00 -1.786755641148E+00 4.353038538814E+00 0.000000000000E+00 2.240183628528E+03
 2.244020349316E+00 -2.524305828128E+00 0.000000000000E+00 -7.479581838077E+00 -4.850900785304E-01 0.000000000000E+00 -7.002471606813E+00 -1.059249398429E+01 0.000000000000E+00 -1.358785296149E+00 7.965803106094E+00 0.000000000000E+00 5.302497337783E-01 7.481752642653E+00 0.000000000000E+00 -4.767052994347E+00 -5.423626478085E+00 0.000000000000E+00 7.260922579233E-01 3.231997210183E+00 0.000000000000E+00 -6.189832697960E+00 5.223573721497E+00 0.000000000000E+00 -7.388609372108E+00 1.639910213150E+00 0.000000000000E+00 -2.238937341325E-01 1.005438940556E+01 0.000000000000E+00 -4.203931882394E+00 1.316813337366E+00 0.000000000000E+00 2.206965190539E-01 3.120506458270E+00 0.000000000000E+00 3.557383366204E+00 2.224533303125E+03
 0.000000000000E+00 0.000000000000E+00 0.000000000000E+00 0.000000000000E+00 0.000000000000E+00 0.000000000000E+00 0.000000000000E+00 0.000000000000E+00 0.000000000000E+00 0.000000000000E+00 0.000000000000E+00 0.000000000000E+00 0.000000000000E+00 0.000000000000E+00 0.000000000000E+00 0.000000000000E+00 0.000000000000E+00 0.000000000000E+00 0.000000000000E+00 0.000000000000E+00 0.000000000000E+00 0.000000000000E+00 0.000000000000E+00 0.000000000000E+00 0.000000000000E+00 0.000000000000E+00 0.000000000000E+00 0.000000000000E+00 0.000000000000E+00 0.000000000000E+00 0.000000000000E+00 0.000000000000E+00 0.000000000000E+00 0.000000000000E+00 0.000000000000E+00 0.000000000000E+00 0.000000000000E+00 0.000000000000E+00 2.240846120721E+03
 -8.551745689616E-01 1.865202888661E+00 0.000000000000E+00 -4.356101530413E+00 3.412269668136E+00 0.000000000000E+00 -4.190117099693E+00 5.754111707552E-01 0.000000000000E+00 -1.968003200239E+00 6.779061970689E+00 0.000000000000E+00 8.781744141093E-02 7.356260974075E+00 0.000000000000E+00 -3.946952112229E+00 8.077309137229E-01 0.000000000000E+00 -1.764333206760E+00 5.185397661647E+00 0.000000000000E+00 -3.515032978197E+00 5.165412310488E+00 0.000000000000E+00 -2.795616003883E+00 5.282694076334E+00 0.000000000000E+00 -9.229951242940E-01 6.765882255847E+00 0.000000000000E+00 -2.950675878899E+00 2.695441773219E-01 0.000000000000E+00 -1.690289258982E+00 5.467737388049E+00 0.000000000000E+00 -1.003326510606E+00 -4.700351531898E+00 0.000000000000E+00 2.237086637269E+03
 2.297395035269E+00 -3.147722673304E+00 0.000000000000E+00 2.711290154820E+00 -5.646159245450E+00 0.000000000000E+00 2.804061386649E+00 -6.542249859476E+00 0.000000000000E+00 2.385972653500E+00 -6.263334806659E+00 0.000000000000E+00 1.547475867099E-01 -7.514590514661E+00 0.000000000000E+00 2.962449786011E+00 -3.890548826767E+00 0.000000000000E+00 3.500924790999E+00 -6.071470103024E+00 0.000000000000E+00 2.187074751396E+00 -5.288279627089E+00 0.000000000000E+00 8.173984405015E-01 -7.416853374171E+00 0.000000000000E+00 1.394626747137E+00 -5.268176628277E+00 0.000000000000E+00 2.032051416149E+00 6.541581033718E-01 0.000000000000E+00 2.662820866119E+00 -6.832141347575E+00 0.000000000000E+00 3.427924375680E+00 -1.476870394347E+00 0.000000000000E+00 3.293346369574E+00 2.234900776645E+03
 0.000000000000E+00 0.000000000000E+00 0.000000000000E+00 0.000000000000E+00 0.000000000000E+00 0.000000000000E+00 0.000000000000E+00 0.000000000000E+00 0.000000000000E+00 0.000000000000E+00 0.000000000000E+00 0.000000000000E+00 0.000000000000E+00 0.000000000000E+00 0.000000000000E+00 0.000000000000E+00 0.000000000000E+00 0.000000000000E+00 0.000000000000E+00 0.000000000000E+00 0.000000000000E+00 0.000000000000E+00 0.000000000000E+00 0.000000000000E+00 0.000000000000E+00 0.000000000000E+00 0.000000000000E+00 0.000000000000E+00 0.000000000000E+00 0.000000000000E+00 0.000000000000E+00 0.000000000000E+00 0.000000000000E+00 0.000000000000E+00 0.000000000000E+00 0.000000000000E+00 0.000000000000E+00 0.000000000000E+00 0.000000000000E+00 0.000000000000E+00 0.000000000000E+00 2.240846120721E+03
 -2.207468756398E+00 8.498245828870E+00 0.000000000000E+00 -3.217439684610E+00 2.319480443170E+00 0.000000000000E+00 -1.054150776093E+00 1.768091070202E+00 0.000000000000E+00 -1.145395405724E+00 4.904498134113E+00 0.000000000000E+00 1.209692350224E+00 5.475295054816E+00 0.000000000000E+00 -6.736891315354E+00 2.585077417439E+00 0.000000000000E+00 -1.507963727309E-01 5.821501137399E+00 0.000000000000E+00 -2.211894396429E+00 3.736887888903E+00 0.000000000000E+00 1.324123272967E+00 4.713286210074E+00 0.000000000000E+00 -1.179869499653E+00 4.122880343474E+00 0.000000000000E+00 -2.222965261575E+00 -1.956632432723E+00 0.000000000000E+00 -1.490372883080E+00 3.655620975585E+00 0.000000000000E+00 -3.090714814051E+00 -3.339540064271E+00 0.000000000000E+00 -3.281523320718E+00 3.342622396771E+00 0.000000000000E+00 2.240342080031E+03
 3.145845362753E+00 -9.846271682161E+00 0.000000000000E+00 3.422661414902E+00 -4.125596201995E+00 0.000000000000E+00 8.636479655261E-01 -4.623067895798E+00 0.000000000000E+00 1.634158369701E+00 -6.164847994781E+00 0.000000000000E+00 -1.403252089999E+00 -7.098736424850E+00 0.000000000000E+00 7.280947672765E+00 -4.386813665664E+00 0.000000000000E+00 1.491799300132E+00 -7.593888722052E+00 0.000000000000E+00 2.377130949932E+00 -4.936747730140E+00 0.000000000000E+00 -1.686514244377E+00 -6.998537088630E+00 0.000000000000E+00 1.814138168280E+00 -4.913250283657E+00 0.000000000000E+00 2.363000533611E+00 2.562082789452E+00 0.000000000000E+00 2.315777765232E+00 -5.466133235969E+00 0.000000000000E+00 4.806756045621E+00 1.595563419942E+00 0.000000000000E+00 3.973587096489E+00 -5.350685232684E+00 0.000000000000E+00 1.176300261948E+00 2.238351747541E+03
 0.000000000000E+00 0.000000000000E+00 0.000000000000E+00 0.000000000000E+00 0.000000000000E+00 0.000000000000E+00 0.000000000000E+00 0.000000000000E+00 0.000000000000E+00 0.000000000000E+00 0.000000000000E+00 0.000000000000E+00 0.000000000000E+00 0.000000000000E+00 0.000000000000E+00 0.000000000000E+00 0.000000000000E+00 0.000000000000E+00 0.000000000000E+00 0.000000000000E+00 0.000000000000E+00 0.000000000000E+00 0.000000000000E+00 0.000000000000E+00 0.000000000000E+00 0.000000000000E+00 0.000000000000E+00 0.000000000000E+00 0.000000000000E+00 0.000000000000E+00 0.000000000000E+00 0.000000000000E+00 0.000000000000E+00 0.000000000000E+00 0.000000000000E+00 0.000000000000E+00 0.000000000000E+00 0.000000000000E+00 0.000000000000E+00 0.000000000000E+00 0.000000000000E+00 0.000000000000E+00 0.000000000000E+00 0.000000000000E+00 2.240846120721E+03
 -1.088915439411E+00 3.019457413944E-01 0.000000000000E+00 -3.050604160020E+00 4.243252793974E+00 0.000000000000E+00 -3.536096433411E+00 3.117160639308E+00 0.000000000000E+00 -1.927091678446E+00 5.794545990539E+00 0.000000000000E+00 -4.362002045255E-01 6.343608124579E+00 0.000000000000E+00 -1.760887794483E+00 1.869861656780E+00 0.000000000000E+00 -2.867934727655E+00 4.508775633774E+00 0.000000000000E+00 -2.586982774822E+00 4.730536082837E+00 0.000000000000E+00 -2.805537078705E+00 5.442468647778E+00 0.000000000000E+00 -9.822163546799E-01 5.588835772831E+00 0.000000000000E+00 -2.561742729465E+00 1.561151369278E+00 0.000000000000E+00 -2.114082755725E+00 6.029890671977E+00 0.000000000000E+00 -1.311177480842E+00 -8.928608141080E-01 0.000000000000E+00 -2.943718286157E+00 3.913956467084E+00 0.000000000000E+00 -4.054826988693E+00 5.254755003333E+00 0.000000000000E+00 2.238411828419E+03
 2.479163950478E+00 -3.889490936782E+00 0.000000000000E+00 -1.928208128127E+00 -3.201024577957E+00 0.000000000000E+00 -1.688312737207E+00 -8.588940589217E+00 0.000000000000E+00 7.439014869573E-01 2.417685369847E-01 0.000000000000E+00 3.057254461643E-01 -7.890503151647E-01 0.000000000000E+00 1.058656225069E-01 -4.720307978579E+00 0.000000000000E+00 1.867578682598E+00 -2.004146815880E+00 0.000000000000E+00 -1.695775738898E+00 -4.865560752336E-01 0.000000000000E+00 -3.549300940130E+00 -3.324841205020E+00 0.000000000000E+00 5.646984800886E-01 1.865401660837E+00 0.000000000000E+00 -8.222023671464E-01 1.441532038906E+00 0.000000000000E+00 1.541123440460E+00 -2.152984479864E+00 0.000000000000E+00 3.669744891991E+00 -8.220446782309E+00 0.000000000000E+00 -3.091226756083E-01 -4.028492676801E+00 0.000000000000E+00 -1.190927801445E-01 -1.863519988312E+00 0.000000000000E+00 2.013286212058E+00 2.235010730619E+03
 0.000000000000E+00 0.000000000000E+00 0.000000000000E+00 0.000000000000E+00 0.000000000000E+00 0.000000000000E+00 0.000000000000E+00 0.000000000000E+00 0.000000000000E+00 0.000000000000E+00 0.000000000000E+00 0.000000000000E+00 0.000000000000E+00 0.000000000000E+00 0.000000000000E+00 0.000000000000E+00 0.000000000000E+00 0.000000000000E+00 0.000000000000E+00 0.000000000000E+00 0.000000000000E+00 0.000000000000E+00 0.000000000000E+00 0.000000000000E+00 0.000000000000E+00 0.000000000000E+00 0.000000000000E+00 0.000000000000E+00 0.000000000000E+00 0.000000000000E+00 0.000000000000E+00 0.000000000000E+00 0.000000000000E+00 0.000000000000E+00 0.000000000000E+00 0.000000000000E+00 0.000000000000E+00 0.000000000000E+00 0.000000000000E+00 0.000000000000E+00 0.000000000000E+00 0.000000000000E+00 0.000000000000E+00 0.000000000000E+00 0.000000000000E+00 0.000000000000E+00 0.000000000000E+00 2.240846120721E+03
 -5.960723428589E-01 9.254221903073E-01 0.000000000000E+00 -2.863131406309E+00 2.499033441556E+00 0.000000000000E+00 -2.791043420316E+00 6.477039798135E-01 0.000000000000E+00 -1.305078786820E+00 4.583156202111E+00 0.000000000000E+00 -7.850545281771E-03 4.878671249426E+00 0.000000000000E+00 -2.290517246552E+00 7.237551063687E-01 0.000000000000E+00 -1.462776486219E+00 3.492134846325E+00 0.000000000000E+00 -2.341231813858E+00 3.543656378622E+00 0.000000000000E+00 -2.155220453069E+00 3.651549870375E+00 0.000000000000E+00 -6.952660949887E-01 4.598245361629E+00 0.000000000000E+00 -2.119504247072E+00 7.622452516874E-01 0.000000000000E+00 -1.282710614504E+00 3.993726539019E+00 0.000000000000E+00 -6.690835843390E-01 -2.742657810915E+00 0.000000000000E+00 -2.496838983985E+00 2.312452590952E+00 0.000000000000E+00 -2.609015692480E+00 3.117400788868E+00 0.000000000000E+00 -1.887504329308E+00 1.284002017332E-01 0.000000000000E+00 2.239216008502E+03
 1.938911630669E+00 -4.621911794639E+00 0.000000000000E+00 9.534731280080E+00 -7.323560084408E+00 0.000000000000E+00 8.536834220785E+00 -9.948459677243E-01 0.000000000000E+00 4.061713737299E+00 -1.472783480669E+01 0.000000000000E+00 -5.519874130644E-01 -1.581906778703E+01 0.000000000000E+00 8.823007946436E+00 -1.941130924898E+00 0.000000000000E+00 3.917595819061E+00 -1.152390256348E+01 0.000000000000E+00 7.683428865007E+00 -1.121467876951E+01 0.000000000000E+00 6.054850126904E+00 -1.153604235301E+01 0.000000000000E+00 2.273433611984E+00 -1.473401443111E+01 0.000000000000E+00 6.432283766728E+00 -5.339409742124E-01 0.000000000000E+00 3.680085142141E+00 -1.185358175487E+01 0.000000000000E+00 2.533728834156E+00 1.052180235495E+01 0.000000000000E+00 8.284690310506E+00 -7.108792299847E+00 0.000000000000E+00 7.071691263515E+00 -8.401418097940E+00 0.000000000000E+00 6.491546394342E+00 7.710484182939E-01 0.000000000000E+00 5.494313440489E+00 2.222729456339E+03
 0.000000000000E+00 0.000000000000E+00 0.000000000000E+00 0.000000000000E+00 0.000000000000E+00 0.000000000000E+00 0.000000000000E+00 0.000000000000E+00 0.000000000000E+00 0.000000000000E+00 0.000000000000E+00 0.000000000000E+00 0.000000000000E+00 0.000000000000E+00 0.000000000000E+00 0.000000000000E+00 0.000000000000E+00 0.000000000000E+00 0.000000000000E+00 0.000000000000E+00 0.000000000000E+00 0.000000000000E+00 0.000000000000E+00 0.000000000000E+00 0.000000000000E+00 0.000000000000E+00 0.000000000000E+00 0.000000000000E+00 0.000000000000E+00 0.000000000000E+00 0.000000000000E+00 0.000000000000E+00 0.000000000000E+00 0.000000000000E+00 0.000000000000E+00 0.000000000000E+00 0.000000000000E+00 0.000000000000E+00 0.000000000000E+00 0.000000000000E+00 0.000000000000E+00 0.000000000000E+00 0.000000000000E+00 0.000000000000E+00 0.000000000000E+00 0.000000000000E+00 0.000000000000E+00 0.000000000000E+00 0.000000000000E+00 0.000000000000E+00 2.240846120721E+03
 -7.482466980655E-01 3.375373210503E+00 0.000000000000E+00 -4.200238819813E+00 2.174218626347E+00 0.000000000000E+00 -2.761779700193E+00 -8.785589447366E-01 0.000000000000E+00 -1.377884827429E+00 5.894186238463E+00 0.000000000000E+00 9.307358378079E-01 6.355100785318E+00 0.000000000000E+00 -4.847899251996E+00 3.825891745503E-01 0.000000000000E+00 -9.697960149986E-01 4.931539448173E+00 0.000000000000E+00 -3.308473855196E+00 4.367682250397E+00 0.000000000000E+00 -1.869044151059E+00 4.431062853425E+00 0.000000000000E+00 -1.137698394054E+00 5.995571157859E+00 0.000000000000E+00 -2.259947119970E+00 -1.430520562347E+00 0.000000000000E+00 -1.062402758471E+00 3.894046022249E+00 0.000000000000E+00 -1.445514463660E+00 -6.061033920349E+00 0.000000000000E+00 -3.630917478697E+00 2.457870372195E+00 0.000000000000E+00 -1.690045164834E+00 1.834750555752E+00 0.000000000000E+00 -2.946025964017E+00 -1.507137287777E+00 0.000000000000E+00 -2.450921456564E+00 7.762652701520E+00 0.000000000000E+00 2.237862342065E+03
 2.052679611019E+00 -4.913502313695E+00 0.000000000000E+00 5.262448772448E+00 -5.288532844337E+00 0.000000000000E+00 4.379776700007E+00 -3.267840678394E+00 0.000000000000E+00 2.747295340489E+00 -8.890447557543E+00 0.000000000000E+00 -5.341954494102E-01 -1.013129206313E+01 0.000000000000E+00 6.099408592311E+00 -2.619369580206E+00 0.000000000000E+00 2.745454538739E+00 -7.853153197318E+00 0.000000000000E+00 4.153732393189E+00 -6.977017387440E+00 0.000000000000E+00 1.938781475761E+00 -8.245763098793E+00 0.000000000000E+00 1.645025662726E+00 -8.322833486864E+00 0.000000000000E+00 3.251871164985E+00 1.620533374582E+00 0.000000000000E+00 2.540887530580E+00 -7.489455515623E+00 0.000000000000E+00 3.146201006769E+00 4.283942531162E+00 0.000000000000E+00 5.088080620814E+00 -5.738244915272E+00 0.000000000000E+00 3.433399599073E+00 -4.869859372588E+00 0.000000000000E+00 4.946155004619E+00 -1.086584457882E+00 0.000000000000E+00 3.533431263675E+00 -1.102808626454E+01 0.000000000000E+00 4.123914786568E+00 2.233829541376E+03
 0.000000000000E+00 0.000000000000E+00 0.000000000000E+00 0.000000000000E+00 0.000000000000E+00 0.000000000000E+00 0.000000000000E+00 0.000000000000E+00 0.000000000000E+00 0.000000000000E+00 0.000000000000E+00 0.000000000000E+00 0.000000000000E+00 0.000000000000E+00 0.000000000000E+00 0.000000000000E+00 0.000000000000E+00 0.000000000000E+00 0.000000000000E+00 0.000000000000E+00 0.000000000000E+00 0.000000000000E+00 0.000000000000E+00 0.000000000000E+00 0.000000000000E+00 0.000000000000E+00 0.000000000000E+00 0.000000000000E+00 0.000000000000E+00 0.000000000000E+00 0.000000000000E+00 0.000000000000E+00 0.000000000000E+00 0.000000000000E+00 0.000000000000E+00 0.000000000000E+00 0.000000000000E+00 0.000000000000E+00 0.000000000000E+00 0.000000000000E+00 0.000000000000E+00 0.000000000000E+00 0.000000000000E+00 0.000000000000E+00 0.000000000000E+00 0.000000000000E+00 0.000000000000E+00 0.000000000000E+00 0.000000000000E+00 0.000000000000E+00 0.000000000000E+00 0.000000000000E+00 0.000000000000E+00 2.240846120721E+03