#BIOSYM hessian 1
@Type: Hessian Update
@Units
 distance: 	A
 energy: 	Kcal/Mol
#header
@natom 67

#label
C1      C2      C3      C4      C5      C6      C7      C8      C9      C10     C11     C12     C13     C14     C15     C16     C17     C18     C19     C20     C21     C22     C23     H24     C25     C26     C27     C28     C29     C30     C31     C32     C33     C34     C35     C36     C37     C38     C39     C40     C41     C42     C43     C44     C45     C46     C47     C48     C49     H50     H51     H52     O53     H54     H55     H56     H57     H58     H59     H60     H61     H62     H63     H64     H65     H66     H67

#element
C  C  C  C  C  C  C  C  C  C  C  C  C  C  C  C  C  C  C  C  C  C  C  H  C  C  C  C  C  C  C  C  C  C  C  C  C  C  C  C  C  C  C  C  C  C  C  C  C  H  H  H  O  H  H  H  H  H  H  H  H  H  H  H  H  H  H 

#matrix
201
 2.777737425922E+03
 -2.510110001015E+01 2.822801957116E+03
 0.000000000000E+00 0.000000000000E+00 0.000000000000E+00
 3.938549406966E+01 6.774353724392E+01 0.000000000000E+00 2.789022380303E+03
 -7.378467921363E-02 8.664934891509E-02 0.000000000000E+00 -2.327979060866E+01 2.770532882679E+03
 0.000000000000E+00 0.000000000000E+00 0.000000000000E+00 0.000000000000E+00 0.000000000000E+00 0.000000000000E+00
 -2.092852565838E+01 3.385173283730E+01 0.000000000000E+00 2.938095053746E-01 -5.230676973728E-01 0.000000000000E+00 2.808802985541E+03
 -3.519396631757E+01 5.881060621277E+01 0.000000000000E+00 1.794074415160E-01 -2.549754744128E-01 0.000000000000E+00 -3.222380100159E+01 2.819585647527E+03
 0.000000000000E+00 0.000000000000E+00 0.000000000000E+00 0.000000000000E+00 0.000000000000E+00 0.000000000000E+00 0.000000000000E+00 0.000000000000E+00 0.000000000000E+00
 3.916645480338E+01 -6.856695384704E+01 0.000000000000E+00 -1.952013262998E+01 3.467142822469E+01 0.000000000000E+00 4.085282884764E+01 7.207038482971E+01 0.000000000000E+00 2.786293964275E+03
 -7.645114268130E-01 4.694878506645E-01 0.000000000000E+00 -3.340811259957E+01 5.889889640669E+01 0.000000000000E+00 -8.201211200997E-01 -5.185512982382E-01 0.000000000000E+00 -1.970529295956E+01 2.835580881624E+03
 0.000000000000E+00 0.000000000000E+00 0.000000000000E+00 0.000000000000E+00 0.000000000000E+00 0.000000000000E+00 0.000000000000E+00 0.000000000000E+00 0.000000000000E+00 0.000000000000E+00 0.000000000000E+00 0.000000000000E+00
 -5.201301128453E-01 -4.159679468934E-01 0.000000000000E+00 2.196621768844E-01 -2.681846488881E-01 0.000000000000E+00 4.147654961771E+01 -7.385096105253E+01 0.000000000000E+00 -2.191124623958E+01 3.736683975907E+01 0.000000000000E+00 2.639818631536E+03
 7.238068436457E-01 4.432658589962E-01 0.000000000000E+00 -2.769130143132E-01 3.546743317239E-01 0.000000000000E+00 2.145294566177E+00 1.174090701202E-02 0.000000000000E+00 -3.548709368126E+01 6.341570836001E+01 0.000000000000E+00 -2.229752143594E+02 2.895889642900E+03
 0.000000000000E+00 0.000000000000E+00 0.000000000000E+00 0.000000000000E+00 0.000000000000E+00 0.000000000000E+00 0.000000000000E+00 0.000000000000E+00 0.000000000000E+00 0.000000000000E+00 0.000000000000E+00 0.000000000000E+00 0.000000000000E+00 0.000000000000E+00 0.000000000000E+00
 -1.233327156470E+03 4.456566226902E+02 0.000000000000E+00 -4.643773855194E+02 -3.541747452236E+00 0.000000000000E+00 8.784820725151E-01 4.780959042183E-01 0.000000000000E+00 1.728589465959E-01 3.708605459173E-01 0.000000000000E+00 3.854123799630E-01 -5.021198948926E-01 0.000000000000E+00 2.820850379125E+03
 4.407114372613E+02 -7.370500199910E+02 0.000000000000E+00 -2.644046995623E+00 -1.433370539831E+03 0.000000000000E+00 6.328323885824E-01 4.760992120014E-01 0.000000000000E+00 2.932937438672E-01 2.081356702398E-01 0.000000000000E+00 4.167560372538E-01 -5.305279256389E-01 0.000000000000E+00 -2.792032435099E+00 2.782657924714E+03
 0.000000000000E+00 0.000000000000E+00 0.000000000000E+00 0.000000000000E+00 0.000000000000E+00 0.000000000000E+00 0.000000000000E+00 0.000000000000E+00 0.000000000000E+00 0.000000000000E+00 0.000000000000E+00 0.000000000000E+00 0.000000000000E+00 0.000000000000E+00 0.000000000000E+00 0.000000000000E+00 0.000000000000E+00 0.000000000000E+00
 -1.186405641655E+03 -4.162331556371E+02 0.000000000000E+00 3.749370809234E-02 -2.949051374604E-01 0.000000000000E+00 -1.268192843711E+03 4.445972372422E+02 0.000000000000E+00 -4.849989905296E+02 -6.184728125139E+00 0.000000000000E+00 -1.239833449374E-02 -1.192132986184E-01 0.000000000000E+00 -1.958916087446E+01 -3.358352539448E+01 0.000000000000E+00 2.818886713786E+03
 -4.158291272061E+02 -7.086520624853E+02 0.000000000000E+00 -3.754649853806E-01 3.383070501532E-03 0.000000000000E+00 4.468215821281E+02 -7.423076574091E+02 0.000000000000E+00 -8.317597953879E+00 -1.513415082915E+03 0.000000000000E+00 2.821961510420E-01 -2.621620583620E-01 0.000000000000E+00 3.401065967730E+01 5.762977905146E+01 0.000000000000E+00 -2.478583128466E+01 2.847250283607E+03
 0.000000000000E+00 0.000000000000E+00 0.000000000000E+00 0.000000000000E+00 0.000000000000E+00 0.000000000000E+00 0.000000000000E+00 0.000000000000E+00 0.000000000000E+00 0.000000000000E+00 0.000000000000E+00 0.000000000000E+00 0.000000000000E+00 0.000000000000E+00 0.000000000000E+00 0.000000000000E+00 0.000000000000E+00 0.000000000000E+00 0.000000000000E+00 0.000000000000E+00 0.000000000000E+00
 5.473705757849E-01 2.605508786306E-03 0.000000000000E+00 -1.215772510797E+03 -4.227447618069E+02 0.000000000000E+00 1.414640337011E-01 8.617624318913E-02 0.000000000000E+00 -1.229406441359E+03 4.384985801671E+02 0.000000000000E+00 9.140035021180E-02 -1.037921818886E-01 0.000000000000E+00 3.749002019819E+01 -2.595761083744E-01 0.000000000000E+00 4.090662582052E+01 -1.227681351490E-02 0.000000000000E+00 2.806554603100E+03
 -2.799133841191E-01 -4.690778302816E-01 0.000000000000E+00 -4.252357827218E+02 -7.109382099364E+02 0.000000000000E+00 -4.035320956595E-01 -3.661316333430E-01 0.000000000000E+00 4.367081183288E+02 -7.327359587834E+02 0.000000000000E+00 -1.435059755582E-01 2.849339905098E-01 0.000000000000E+00 -6.639972963975E+01 4.315538560845E-01 0.000000000000E+00 7.041157375921E+01 -6.023129048182E-02 0.000000000000E+00 -5.869773207631E-01 2.810380290568E+03
 0.000000000000E+00 0.000000000000E+00 0.000000000000E+00 0.000000000000E+00 0.000000000000E+00 0.000000000000E+00 0.000000000000E+00 0.000000000000E+00 0.000000000000E+00 0.000000000000E+00 0.000000000000E+00 0.000000000000E+00 0.000000000000E+00 0.000000000000E+00 0.000000000000E+00 0.000000000000E+00 0.000000000000E+00 0.000000000000E+00 0.000000000000E+00 0.000000000000E+00 0.000000000000E+00 0.000000000000E+00 0.000000000000E+00 0.000000000000E+00
 5.601899062684E-01 5.958431865387E-01 0.000000000000E+00 -4.190484044108E-01 3.605473299841E-01 0.000000000000E+00 -1.187691009434E+03 -4.106189328427E+02 0.000000000000E+00 6.146304826648E-01 2.526691571060E-01 0.000000000000E+00 -5.213429353654E+02 1.302489744610E+01 0.000000000000E+00 -3.902558984385E-01 -6.518968630326E-01 0.000000000000E+00 -1.990941028822E+01 -3.488324391153E+01 0.000000000000E+00 -8.051783656031E-03 2.522710890805E-01 0.000000000000E+00 2.776769243715E+03
 -7.435378341640E-01 -2.814190713147E-01 0.000000000000E+00 2.212985887676E-01 -4.028245249998E-01 0.000000000000E+00 -4.220823534673E+02 -7.115275189919E+02 0.000000000000E+00 -6.287872225102E-01 -7.047772517350E-01 0.000000000000E+00 1.461566595818E+01 -1.634760479148E+03 0.000000000000E+00 5.575980199608E-01 4.559439102626E-01 0.000000000000E+00 3.448571178469E+01 5.966210198766E+01 0.000000000000E+00 8.054070781442E-02 -1.815691960965E-01 0.000000000000E+00 -2.529669387426E+01 2.952578562145E+03
 0.000000000000E+00 0.000000000000E+00 0.000000000000E+00 0.000000000000E+00 0.000000000000E+00 0.000000000000E+00 0.000000000000E+00 0.000000000000E+00 0.000000000000E+00 0.000000000000E+00 0.000000000000E+00 0.000000000000E+00 0.000000000000E+00 0.000000000000E+00 0.000000000000E+00 0.000000000000E+00 0.000000000000E+00 0.000000000000E+00 0.000000000000E+00 0.000000000000E+00 0.000000000000E+00 0.000000000000E+00 0.000000000000E+00 0.000000000000E+00 0.000000000000E+00 0.000000000000E+00 0.000000000000E+00
 2.937383057596E-01 5.421373979603E-01 0.000000000000E+00 -2.032715089174E-01 3.265520088540E-01 0.000000000000E+00 1.603608250755E+00 8.031214958828E-01 0.000000000000E+00 -1.189634441731E+03 -4.192379936973E+02 0.000000000000E+00 -1.340475612330E+03 4.908509053832E+02 0.000000000000E+00 -3.557022019527E-01 -4.323803601869E-01 0.000000000000E+00 3.937097103347E+01 -7.493242806030E-01 0.000000000000E+00 -1.957486438203E+01 -3.302060506617E+01 0.000000000000E+00 4.736736917170E+01 1.689411817009E+00 0.000000000000E+00 2.881684581359E+03
 -2.085204395535E-01 -3.919186926159E-01 0.000000000000E+00 1.297185236769E-01 -7.091793406157E-02 0.000000000000E+00 -7.558813536341E-01 -5.475541332212E-01 0.000000000000E+00 -4.116742894548E+02 -7.102188074085E+02 0.000000000000E+00 4.895748084194E+02 -8.159185227379E+02 0.000000000000E+00 1.442803061937E-01 2.564237039012E-01 0.000000000000E+00 -6.844124405474E+01 5.545666501428E-01 0.000000000000E+00 3.424033544742E+01 5.783703533803E+01 0.000000000000E+00 8.249225102539E+01 6.726321169210E-01 0.000000000000E+00 -9.371181227015E+01 2.846389471099E+03
 0.000000000000E+00 0.000000000000E+00 0.000000000000E+00 0.000000000000E+00 0.000000000000E+00 0.000000000000E+00 0.000000000000E+00 0.000000000000E+00 0.000000000000E+00 0.000000000000E+00 0.000000000000E+00 0.000000000000E+00 0.000000000000E+00 0.000000000000E+00 0.000000000000E+00 0.000000000000E+00 0.000000000000E+00 0.000000000000E+00 0.000000000000E+00 0.000000000000E+00 0.000000000000E+00 0.000000000000E+00 0.000000000000E+00 0.000000000000E+00 0.000000000000E+00 0.000000000000E+00 0.000000000000E+00 0.000000000000E+00 0.000000000000E+00 0.000000000000E+00
 -1.550719689711E-01 -1.620239619562E-01 0.000000000000E+00 -4.946522638446E-03 -1.588311135193E-01 0.000000000000E+00 -2.726017814770E-01 -2.077330494320E-01 0.000000000000E+00 -3.091333092922E-02 -1.364595715663E-01 0.000000000000E+00 -9.508669880989E-02 1.959602248407E-01 0.000000000000E+00 8.934441258451E-02 9.698160532134E-02 0.000000000000E+00 -4.252890777348E-02 1.049857498532E-02 0.000000000000E+00 2.386614643932E-02 -2.948391575172E-02 0.000000000000E+00 8.249171345888E-02 -2.017733961327E-01 0.000000000000E+00 7.292434001010E-02 -3.969374936899E-02 0.000000000000E+00 2.813100323621E+03
 4.820503855699E-02 -2.526449975874E-03 0.000000000000E+00 1.977638036836E-02 9.655033916601E-03 0.000000000000E+00 2.076996019287E-01 1.035170121957E-01 0.000000000000E+00 8.912000293126E-02 5.028282903722E-02 0.000000000000E+00 1.288979588687E-01 -1.431458479621E-01 0.000000000000E+00 -4.936466800996E-02 -1.788650112209E-01 0.000000000000E+00 -1.271327323676E-02 -8.440100771827E-02 0.000000000000E+00 -5.494752907837E-02 4.167342041673E-02 0.000000000000E+00 -1.186361619671E-01 1.599966715718E-01 0.000000000000E+00 -1.513706135032E-01 9.590755526170E-02 0.000000000000E+00 3.184656397222E-01 2.798420534341E+03
 0.000000000000E+00 0.000000000000E+00 0.000000000000E+00 0.000000000000E+00 0.000000000000E+00 0.000000000000E+00 0.000000000000E+00 0.000000000000E+00 0.000000000000E+00 0.000000000000E+00 0.000000000000E+00 0.000000000000E+00 0.000000000000E+00 0.000000000000E+00 0.000000000000E+00 0.000000000000E+00 0.000000000000E+00 0.000000000000E+00 0.000000000000E+00 0.000000000000E+00 0.000000000000E+00 0.000000000000E+00 0.000000000000E+00 0.000000000000E+00 0.000000000000E+00 0.000000000000E+00 0.000000000000E+00 0.000000000000E+00 0.000000000000E+00 0.000000000000E+00 0.000000000000E+00 0.000000000000E+00 0.000000000000E+00
 -2.741161229428E-01 -1.138386537169E-01 0.000000000000E+00 6.361954578192E-02 -1.622257668835E-01 0.000000000000E+00 -6.032031031158E-01 -3.648771064891E-01 0.000000000000E+00 -1.399063423424E-01 -2.074713032838E-01 0.000000000000E+00 -3.015887359425E-01 4.215835332655E-01 0.000000000000E+00 1.617618725468E-01 1.516231117604E-01 0.000000000000E+00 -4.318530523673E-02 7.073643450025E-02 0.000000000000E+00 5.674256552903E-02 -1.024622428486E-01 0.000000000000E+00 3.533579064298E-01 -4.167585719601E-01 0.000000000000E+00 3.093374424103E-01 -1.728443046550E-01 0.000000000000E+00 4.154482983555E+01 7.163230081772E+01 0.000000000000E+00 2.782845249312E+03
 -1.661125054705E-01 -2.087845995637E-01 0.000000000000E+00 1.115860176180E-01 -1.237065830232E-01 0.000000000000E+00 -6.395260360213E-01 -3.170284947904E-01 0.000000000000E+00 -1.950146916358E-01 -2.054118307103E-01 0.000000000000E+00 -3.969179553372E-01 4.560596320947E-01 0.000000000000E+00 1.638497259924E-01 2.217774384405E-01 0.000000000000E+00 1.622524080504E-02 1.789841652195E-01 0.000000000000E+00 3.552336634286E-02 -8.504217621764E-02 0.000000000000E+00 5.514184790117E-01 -4.407767355246E-01 0.000000000000E+00 4.354406141722E-01 -2.216333590790E-01 0.000000000000E+00 -9.922718090602E-01 -1.706695253718E+00 0.000000000000E+00 2.764610424039E+02 2.859295558708E+03
 0.000000000000E+00 0.000000000000E+00 0.000000000000E+00 0.000000000000E+00 0.000000000000E+00 0.000000000000E+00 0.000000000000E+00 0.000000000000E+00 0.000000000000E+00 0.000000000000E+00 0.000000000000E+00 0.000000000000E+00 0.000000000000E+00 0.000000000000E+00 0.000000000000E+00 0.000000000000E+00 0.000000000000E+00 0.000000000000E+00 0.000000000000E+00 0.000000000000E+00 0.000000000000E+00 0.000000000000E+00 0.000000000000E+00 0.000000000000E+00 0.000000000000E+00 0.000000000000E+00 0.000000000000E+00 0.000000000000E+00 0.000000000000E+00 0.000000000000E+00 0.000000000000E+00 0.000000000000E+00 0.000000000000E+00 0.000000000000E+00 0.000000000000E+00 0.000000000000E+00
 -2.040677383150E+01 -3.513945137152E+01 0.000000000000E+00 3.877535215871E+01 -2.658565556347E-01 0.000000000000E+00 -5.022142495732E-01 -2.413303173170E-01 0.000000000000E+00 -1.608439691564E-01 -1.534233242326E-01 0.000000000000E+00 -3.143347536762E-01 3.784253104731E-01 0.000000000000E+00 -1.242414940674E+03 -4.357547207118E+02 0.000000000000E+00 9.650026667537E-02 2.434597989299E-01 0.000000000000E+00 -4.278436540723E-02 -2.667518303731E-02 0.000000000000E+00 4.663168418352E-01 -3.939446303717E-01 0.000000000000E+00 3.671375609927E-01 -1.809785132381E-01 0.000000000000E+00 -1.938258532071E+01 3.370693258105E+01 0.000000000000E+00 -1.190171320391E-01 -1.682093945344E-01 0.000000000000E+00 2.773742564312E+03
 3.496736321571E+01 6.002246051490E+01 0.000000000000E+00 -6.768266642470E+01 1.512810390122E-01 0.000000000000E+00 -1.168158101073E+00 -8.125150238271E-01 0.000000000000E+00 -3.681449385112E-01 -4.325231759433E-01 0.000000000000E+00 -6.966493512306E-01 9.831607053889E-01 0.000000000000E+00 -4.401998344420E+02 -7.276524190095E+02 0.000000000000E+00 1.330455543194E-02 4.483427159259E-01 0.000000000000E+00 1.199414267342E-01 -2.509428391412E-01 0.000000000000E+00 1.148261836445E+00 -8.331916440350E-01 0.000000000000E+00 8.862221372269E-01 -4.544013862792E-01 0.000000000000E+00 -3.295194710167E+01 5.729338885467E+01 0.000000000000E+00 -2.400458621411E-01 -4.136423151407E-01 0.000000000000E+00 1.536534808255E+01 2.806739562426E+03
 0.000000000000E+00 0.000000000000E+00 0.000000000000E+00 0.000000000000E+00 0.000000000000E+00 0.000000000000E+00 0.000000000000E+00 0.000000000000E+00 0.000000000000E+00 0.000000000000E+00 0.000000000000E+00 0.000000000000E+00 0.000000000000E+00 0.000000000000E+00 0.000000000000E+00 0.000000000000E+00 0.000000000000E+00 0.000000000000E+00 0.000000000000E+00 0.000000000000E+00 0.000000000000E+00 0.000000000000E+00 0.000000000000E+00 0.000000000000E+00 0.000000000000E+00 0.000000000000E+00 0.000000000000E+00 0.000000000000E+00 0.000000000000E+00 0.000000000000E+00 0.000000000000E+00 0.000000000000E+00 0.000000000000E+00 0.000000000000E+00 0.000000000000E+00 0.000000000000E+00 0.000000000000E+00 0.000000000000E+00 0.000000000000E+00
 -2.256078517593E-01 -5.219868387494E-02 0.000000000000E+00 -1.886254806591E+01 -3.190258470248E+01 0.000000000000E+00 -5.345310148788E-01 -3.377807057963E-01 0.000000000000E+00 -1.566078153341E-01 -1.821656433784E-01 0.000000000000E+00 -2.939567246534E-01 3.938694906730E-01 0.000000000000E+00 1.078620890534E-01 1.824252373873E-01 0.000000000000E+00 -5.326362343590E-03 1.072823129624E-01 0.000000000000E+00 9.355763881242E-02 -9.203658375452E-02 0.000000000000E+00 3.370254893858E-01 -3.822833405294E-01 0.000000000000E+00 3.433838346356E-01 -1.883571252348E-01 0.000000000000E+00 3.923563048039E+01 -6.921689252107E+01 0.000000000000E+00 -2.303384817399E+01 3.988039614610E+01 0.000000000000E+00 3.968687265545E+01 6.678518091999E+01 0.000000000000E+00 2.770464112835E+03
 -8.006845655678E-02 5.931249666699E-02 0.000000000000E+00 3.320242342596E+01 5.559036231394E+01 0.000000000000E+00 9.396827839120E-02 4.266828184405E-02 0.000000000000E+00 4.580450457333E-02 8.538989331632E-03 0.000000000000E+00 7.899245969513E-02 -4.572980887338E-02 0.000000000000E+00 1.130623828766E-03 5.149419940491E-02 0.000000000000E+00 -1.189878537315E-02 -6.088870558336E-02 0.000000000000E+00 -3.315844623691E-02 5.719078212107E-02 0.000000000000E+00 -6.828042529312E-02 4.061418884879E-02 0.000000000000E+00 -7.817309941214E-02 4.361185840145E-02 0.000000000000E+00 2.700874764335E-01 -2.099596919086E-01 0.000000000000E+00 -4.252103979820E+01 7.407153792965E+01 0.000000000000E+00 2.744342230244E-01 3.092522140615E-01 0.000000000000E+00 -3.924546565420E+01 2.759268582774E+03
 0.000000000000E+00 0.000000000000E+00 0.000000000000E+00 0.000000000000E+00 0.000000000000E+00 0.000000000000E+00 0.000000000000E+00 0.000000000000E+00 0.000000000000E+00 0.000000000000E+00 0.000000000000E+00 0.000000000000E+00 0.000000000000E+00 0.000000000000E+00 0.000000000000E+00 0.000000000000E+00 0.000000000000E+00 0.000000000000E+00 0.000000000000E+00 0.000000000000E+00 0.000000000000E+00 0.000000000000E+00 0.000000000000E+00 0.000000000000E+00 0.000000000000E+00 0.000000000000E+00 0.000000000000E+00 0.000000000000E+00 0.000000000000E+00 0.000000000000E+00 0.000000000000E+00 0.000000000000E+00 0.000000000000E+00 0.000000000000E+00 0.000000000000E+00 0.000000000000E+00 0.000000000000E+00 0.000000000000E+00 0.000000000000E+00 0.000000000000E+00 0.000000000000E+00 0.000000000000E+00
 2.599716920676E-01 1.364383353781E-01 0.000000000000E+00 -9.323024157123E-02 1.600704839584E-01 0.000000000000E+00 6.075886257455E-01 3.509627941840E-01 0.000000000000E+00 1.592397501613E-01 2.056106328143E-01 0.000000000000E+00 3.298163433023E-01 -4.487586010014E-01 0.000000000000E+00 -1.593334608548E-01 -1.950998706001E-01 0.000000000000E+00 1.336760592047E-02 -1.254880413708E-01 0.000000000000E+00 -4.894354555682E-02 8.905349916665E-02 0.000000000000E+00 -4.386150440881E-01 4.353787729830E-01 0.000000000000E+00 -3.714043896257E-01 2.031456132683E-01 0.000000000000E+00 -1.236774699370E+03 4.328678424277E+02 0.000000000000E+00 -5.070490877806E+02 -1.426837325577E+01 0.000000000000E+00 1.349035950384E-01 2.791513623596E-01 0.000000000000E+00 2.072595333440E-01 1.454682435924E-01 0.000000000000E+00 2.843302240187E+03
 3.679554009544E-01 3.254949157609E-01 0.000000000000E+00 -1.638582693176E-01 2.009351692841E-01 0.000000000000E+00 9.103378806869E-01 5.707781551863E-01 0.000000000000E+00 2.420295006364E-01 3.249045628230E-01 0.000000000000E+00 5.122189771804E-01 -7.023288612713E-01 0.000000000000E+00 -3.015293616065E-01 -2.777126659062E-01 0.000000000000E+00 -2.728283931245E-03 -2.193157748359E-01 0.000000000000E+00 -5.373609325755E-02 1.491613763343E-01 0.000000000000E+00 -7.566499039135E-01 6.321802247686E-01 0.000000000000E+00 -5.959027327162E-01 3.026410735337E-01 0.000000000000E+00 4.349896794010E+02 -7.295024579252E+02 0.000000000000E+00 -2.420883308802E+01 -1.541241152387E+03 0.000000000000E+00 2.340868420230E-01 6.174734964300E-01 0.000000000000E+00 3.412758193173E-01 -1.531411369915E-01 0.000000000000E+00 2.865177578570E+01 2.892054864858E+03
 0.000000000000E+00 0.000000000000E+00 0.000000000000E+00 0.000000000000E+00 0.000000000000E+00 0.000000000000E+00 0.000000000000E+00 0.000000000000E+00 0.000000000000E+00 0.000000000000E+00 0.000000000000E+00 0.000000000000E+00 0.000000000000E+00 0.000000000000E+00 0.000000000000E+00 0.000000000000E+00 0.000000000000E+00 0.000000000000E+00 0.000000000000E+00 0.000000000000E+00 0.000000000000E+00 0.000000000000E+00 0.000000000000E+00 0.000000000000E+00 0.000000000000E+00 0.000000000000E+00 0.000000000000E+00 0.000000000000E+00 0.000000000000E+00 0.000000000000E+00 0.000000000000E+00 0.000000000000E+00 0.000000000000E+00 0.000000000000E+00 0.000000000000E+00 0.000000000000E+00 0.000000000000E+00 0.000000000000E+00 0.000000000000E+00 0.000000000000E+00 0.000000000000E+00 0.000000000000E+00 0.000000000000E+00 0.000000000000E+00 0.000000000000E+00
 -6.267058168880E-02 -1.852426735276E-01 0.000000000000E+00 9.945799835109E-02 1.077067024418E-01 0.000000000000E+00 -2.652919541001E-01 -2.358742453651E-01 0.000000000000E+00 -8.688949594446E-02 -1.272698913499E-01 0.000000000000E+00 -1.956211610521E-01 2.020967045537E-01 0.000000000000E+00 -1.955925146167E+01 3.436707382155E+01 0.000000000000E+00 -2.122853123828E-02 7.124164195987E-02 0.000000000000E+00 4.298884963620E-02 -9.458846622727E-02 0.000000000000E+00 2.745069841647E-01 -1.329327924602E-01 0.000000000000E+00 2.181581111721E-01 -7.138915798632E-02 0.000000000000E+00 -1.221895413334E+03 -4.251887889827E+02 0.000000000000E+00 -2.995429342645E-01 1.545920278407E-01 0.000000000000E+00 -1.175467272638E+03 4.230002809341E+02 0.000000000000E+00 -4.721178972277E+02 -5.361966121280E+00 0.000000000000E+00 -1.949004498049E+01 -3.410317226607E+01 0.000000000000E+00 2.753966982566E+03
 8.610236270643E-02 1.544677440763E-01 0.000000000000E+00 5.442585292558E-02 -6.657638513062E-02 0.000000000000E+00 8.054474795609E-02 8.599024303994E-02 0.000000000000E+00 1.202855257121E-02 4.046895162957E-02 0.000000000000E+00 5.593734070502E-02 -8.566437115595E-02 0.000000000000E+00 -3.341574609948E+01 5.805298793330E+01 0.000000000000E+00 -1.993229430155E-02 -5.012889118514E-02 0.000000000000E+00 4.812044426767E-02 1.850061051546E-02 0.000000000000E+00 -1.723695983269E-01 4.476245093231E-02 0.000000000000E+00 -8.210371188061E-02 1.306846470975E-02 0.000000000000E+00 -4.285240559731E+02 -7.135406003929E+02 0.000000000000E+00 4.391610555206E-01 2.701407973041E-01 0.000000000000E+00 4.248214197037E+02 -7.135560044937E+02 0.000000000000E+00 4.342369225767E+00 -1.497257874690E+03 0.000000000000E+00 3.407101186639E+01 5.988966583830E+01 0.000000000000E+00 4.319337754917E-02 2.806460811980E+03
 0.000000000000E+00 0.000000000000E+00 0.000000000000E+00 0.000000000000E+00 0.000000000000E+00 0.000000000000E+00 0.000000000000E+00 0.000000000000E+00 0.000000000000E+00 0.000000000000E+00 0.000000000000E+00 0.000000000000E+00 0.000000000000E+00 0.000000000000E+00 0.000000000000E+00 0.000000000000E+00 0.000000000000E+00 0.000000000000E+00 0.000000000000E+00 0.000000000000E+00 0.000000000000E+00 0.000000000000E+00 0.000000000000E+00 0.000000000000E+00 0.000000000000E+00 0.000000000000E+00 0.000000000000E+00 0.000000000000E+00 0.000000000000E+00 0.000000000000E+00 0.000000000000E+00 0.000000000000E+00 0.000000000000E+00 0.000000000000E+00 0.000000000000E+00 0.000000000000E+00 0.000000000000E+00 0.000000000000E+00 0.000000000000E+00 0.000000000000E+00 0.000000000000E+00 0.000000000000E+00 0.000000000000E+00 0.000000000000E+00 0.000000000000E+00 0.000000000000E+00 0.000000000000E+00 0.000000000000E+00
 2.534212655045E-01 1.405557511806E-01 0.000000000000E+00 -1.260914989906E-01 1.490470236565E-01 0.000000000000E+00 8.016453446232E-01 3.913657776221E-01 0.000000000000E+00 2.135952241471E-01 2.272886094706E-01 0.000000000000E+00 4.446832199234E-01 -5.413283329126E-01 0.000000000000E+00 -1.579805653214E-01 -2.313424855701E-01 0.000000000000E+00 1.702496369350E-02 -1.642514866458E-01 0.000000000000E+00 -5.091991171903E-02 1.217865342410E-01 0.000000000000E+00 -5.643139495013E-01 5.490790901696E-01 0.000000000000E+00 -4.663508470943E-01 2.627640246881E-01 0.000000000000E+00 -1.213757019819E-01 3.528227608550E-02 0.000000000000E+00 -1.504661067507E+03 -5.287517351986E+02 0.000000000000E+00 1.194059926229E-01 3.863712846103E-01 0.000000000000E+00 -1.279230748080E+03 4.341131047906E+02 0.000000000000E+00 4.877838053595E+01 -1.322887654966E+00 0.000000000000E+00 3.956946312669E+01 -1.080670472355E-01 0.000000000000E+00 3.074206964687E+03
 -2.776508096389E-02 -1.062996183500E-01 0.000000000000E+00 -3.954165230545E-03 -2.628444895162E-02 0.000000000000E+00 -9.194160170958E-02 -9.189762429399E-02 0.000000000000E+00 -6.189536181482E-03 -5.277943904938E-02 0.000000000000E+00 -3.549674613225E-02 4.992889130995E-02 0.000000000000E+00 5.027289565118E-02 -2.598987814013E-03 0.000000000000E+00 -2.387483185059E-02 -3.962706708933E-03 0.000000000000E+00 5.382003450599E-03 -2.481205533198E-02 0.000000000000E+00 3.179555729778E-02 -3.817996643669E-02 0.000000000000E+00 1.306796949772E-02 1.065874878735E-02 0.000000000000E+00 -1.099842371519E-01 3.033851056059E-01 0.000000000000E+00 -5.386346648192E+02 -8.675210253793E+02 0.000000000000E+00 -2.366374974300E-02 -1.119522826981E-01 0.000000000000E+00 4.191759287058E+02 -7.239696940565E+02 0.000000000000E+00 -8.574723848141E+01 1.860139124534E+00 0.000000000000E+00 7.217427019706E+01 -2.205248897893E-01 0.000000000000E+00 9.128238662616E+01 2.538940890697E+03
 0.000000000000E+00 0.000000000000E+00 0.000000000000E+00 0.000000000000E+00 0.000000000000E+00 0.000000000000E+00 0.000000000000E+00 0.000000000000E+00 0.000000000000E+00 0.000000000000E+00 0.000000000000E+00 0.000000000000E+00 0.000000000000E+00 0.000000000000E+00 0.000000000000E+00 0.000000000000E+00 0.000000000000E+00 0.000000000000E+00 0.000000000000E+00 0.000000000000E+00 0.000000000000E+00 0.000000000000E+00 0.000000000000E+00 0.000000000000E+00 0.000000000000E+00 0.000000000000E+00 0.000000000000E+00 0.000000000000E+00 0.000000000000E+00 0.000000000000E+00 0.000000000000E+00 0.000000000000E+00 0.000000000000E+00 0.000000000000E+00 0.000000000000E+00 0.000000000000E+00 0.000000000000E+00 0.000000000000E+00 0.000000000000E+00 0.000000000000E+00 0.000000000000E+00 0.000000000000E+00 0.000000000000E+00 0.000000000000E+00 0.000000000000E+00 0.000000000000E+00 0.000000000000E+00 0.000000000000E+00 0.000000000000E+00 0.000000000000E+00 0.000000000000E+00
 -1.093727400400E-01 -9.684068214208E-02 0.000000000000E+00 -1.230023066451E+03 4.444514611208E+02 0.000000000000E+00 -2.201418780590E-02 -1.674246949919E-02 0.000000000000E+00 2.186720275895E-02 -5.934488958356E-02 0.000000000000E+00 -9.601728223172E-02 9.470132765779E-02 0.000000000000E+00 4.025554164790E+01 3.390909050818E-02 0.000000000000E+00 6.119289472579E-02 5.365762476186E-02 0.000000000000E+00 -2.006703872405E+01 3.546241524264E+01 0.000000000000E+00 2.960499344049E-01 -3.822634483884E-02 0.000000000000E+00 1.757041129466E-01 -5.839207411373E-03 0.000000000000E+00 7.273701422007E-02 -7.080790028499E-03 0.000000000000E+00 -2.701042053583E-03 -7.018169571324E-02 0.000000000000E+00 7.604550764775E-02 -1.360788109692E-01 0.000000000000E+00 -1.135732042993E+03 -3.912214706938E+02 0.000000000000E+00 2.307921650579E-02 7.068189435478E-02 0.000000000000E+00 3.680544541338E+01 1.124055370915E-01 0.000000000000E+00 -1.774553787993E+01 -3.278040507188E+01 0.000000000000E+00 2.730869252615E+03
 4.870604103946E-01 2.081352189431E-01 0.000000000000E+00 4.539976575853E+02 -7.390855346779E+02 0.000000000000E+00 1.160664043800E+00 6.955939573285E-01 0.000000000000E+00 3.022217393513E-01 4.444837363979E-01 0.000000000000E+00 6.440561307963E-01 -8.224579426966E-01 0.000000000000E+00 6.681520669030E+01 -5.600778492258E-01 0.000000000000E+00 5.980339073770E-02 -2.029959838004E-01 0.000000000000E+00 -3.376210436046E+01 5.933285338289E+01 0.000000000000E+00 -8.820362830071E-01 7.881187505708E-01 0.000000000000E+00 -7.546696406628E-01 3.146447831301E-01 0.000000000000E+00 1.556781878335E-01 -9.878758379511E-03 0.000000000000E+00 2.621972407444E-01 2.737681925984E-01 0.000000000000E+00 1.554492349033E-01 5.398534388327E-01 0.000000000000E+00 -3.896029594839E+02 -6.721012255987E+02 0.000000000000E+00 -2.814821122288E-01 -4.949820144935E-01 0.000000000000E+00 -6.474613258728E+01 -1.701079275016E-01 0.000000000000E+00 3.092160745375E+01 5.759455534431E+01 0.000000000000E+00 -1.073022046085E+01 2.821153734224E+03
 0.000000000000E+00 0.000000000000E+00 0.000000000000E+00 0.000000000000E+00 0.000000000000E+00 0.000000000000E+00 0.000000000000E+00 0.000000000000E+00 0.000000000000E+00 0.000000000000E+00 0.000000000000E+00 0.000000000000E+00 0.000000000000E+00 0.000000000000E+00 0.000000000000E+00 0.000000000000E+00 0.000000000000E+00 0.000000000000E+00 0.000000000000E+00 0.000000000000E+00 0.000000000000E+00 0.000000000000E+00 0.000000000000E+00 0.000000000000E+00 0.000000000000E+00 0.000000000000E+00 0.000000000000E+00 0.000000000000E+00 0.000000000000E+00 0.000000000000E+00 0.000000000000E+00 0.000000000000E+00 0.000000000000E+00 0.000000000000E+00 0.000000000000E+00 0.000000000000E+00 0.000000000000E+00 0.000000000000E+00 0.000000000000E+00 0.000000000000E+00 0.000000000000E+00 0.000000000000E+00 0.000000000000E+00 0.000000000000E+00 0.000000000000E+00 0.000000000000E+00 0.000000000000E+00 0.000000000000E+00 0.000000000000E+00 0.000000000000E+00 0.000000000000E+00 0.000000000000E+00 0.000000000000E+00 0.000000000000E+00