#BIOSYM hessian 1
@Type: Hessian Update
@Units
 distance: 	A
 energy: 	Kcal/Mol
#header
@natom 72

#label
C1      C2      C3      C4      C5      C6      C7      C8      C9      C10     C11     C12     C13     C14     C15     C16     C17     C18     C19     C20     C21     C22     C23     C24     C25     C26     C27     C28     C29     C30     C31     C32     C33     C34     C35     C36     C37     C38     C39     C40     C41     C42     C43     C44     C45     C46     C47     C48     H49     H50     H51     H52     H53     H54     H55     H56     H57     H58     H59     H60     H61     H62     H63     O64     H65     C66     O67     O68     H69     H70     O71     H72

#element
C  C  C  C  C  C  C  C  C  C  C  C  C  C  C  C  C  C  C  C  C  C  C  C  C  C  C  C  C  C  C  C  C  C  C  C  C  C  C  C  C  C  C  C  C  C  C  C  H  H  H  H  H  H  H  H  H  H  H  H  H  H  H  O  H  C  O  O  H  H  O  H 

#matrix
216
 2.793058592453E+03
 -2.663886421039E+01 2.812234718713E+03
 2.003015771013E+01 -1.235529935883E+01 1.920114237967E+02
 3.979221975459E+01 6.648596805783E+01 7.443293056579E-02 2.789936671202E+03
 -5.085797402696E-01 -7.613552083421E-01 6.042577639816E-02 -2.961051159942E+01 2.746392384405E+03
 2.805570929352E-01 7.890578136312E-01 8.713708578994E+00 2.077653230324E+01 -4.454403221795E+00 1.894360767833E+02
 -1.904822710637E+01 3.429296263494E+01 -2.908283127179E-01 1.861705142876E-02 7.547086253358E-02 1.283773930574E-02 2.800834995504E+03
 -3.282475197140E+01 5.896065747066E+01 -4.623560295736E-01 -1.399214171427E-02 -4.999027045186E-02 -6.405992803263E-02 2.451912424082E+01 2.748147514113E+03
 -2.317453609997E-01 1.957076299022E-01 9.047580163828E+00 -6.141519212048E-02 7.145745047492E-03 4.682577138504E-01 1.420121444551E+01 -1.240948762774E+01 1.863936222684E+02
 3.728591545900E+01 -6.695243175558E+01 4.038683579473E-01 -1.972629288306E+01 3.512165951103E+01 -2.713390895290E-01 4.002122792618E+01 6.879319295085E+01 -6.754476174923E-02 2.799832576559E+03
 -3.164470055777E-01 4.916028377258E-01 1.264136748617E-02 -3.232600292641E+01 5.728894457354E+01 -1.192259458185E-01 -2.226220577730E-01 -5.544883479777E-01 6.485766610506E-02 -1.031938423612E+01 2.814458547317E+03
 2.102745769738E-01 -3.494068756946E-01 8.916098203575E+00 -2.543866639697E-01 1.765133050258E-01 8.326394355656E+00 2.529687447623E-01 4.453147924992E-01 9.364893547997E+00 1.427369912186E+01 -7.448736623533E+00 1.935703160270E+02
 3.538728351088E-03 2.128276466325E-03 -6.494157337607E-03 2.106714062431E-03 9.180081959974E-03 1.132777040205E-02 5.063827774470E+01 -8.410601945273E+01 5.716266565189E-01 -2.116515766388E+01 3.770940496248E+01 -2.875217454235E-01 2.610078559531E+03
 1.424201352745E-02 -5.436865619315E-03 2.821131345361E-02 5.870558547652E-03 3.690068533909E-02 -9.210174821683E-02 -5.068775156632E-01 8.387803696474E-01 -2.255913782588E-02 -3.469831502438E+01 6.183003414195E+01 -3.247018935785E-01 -1.656767362977E+02 3.069087581127E+03
 1.756196107098E-02 4.758304750539E-02 1.667240289606E-01 -1.540910482110E-02 4.240492193182E-02 6.101178264769E-01 9.426402742921E-02 -4.604626590516E-01 1.282638166644E+01 -1.569498998985E-01 2.463327106101E-01 1.111695095810E+01 1.190708528649E+01 -1.096264924765E+01 1.520447500352E+02
 -1.230490778015E+03 4.531945443910E+02 -1.111337155049E+01 -4.577612199994E+02 -1.430424424707E+01 -3.618936886912E+00 -8.742026850526E-02 6.955019947181E-02 2.291858981035E-02 -1.916564934838E-02 1.346771324127E-01 1.460213964961E-01 -1.031480490614E-02 -2.807220942310E-02 -4.862031389376E-02 2.796766598247E+03
 4.484245587647E+02 -7.477756043254E+02 5.931822879639E+00 -1.208873945359E+01 -1.413401582990E+03 2.374737798725E+00 -8.077595446913E-02 3.836394036024E-02 4.264274001027E-03 -3.054318390829E-02 1.402647309933E-01 -1.215300141509E-01 -1.059344498428E-02 -3.351487050414E-02 -8.103492480320E-03 -1.368091156869E+01 2.753466232316E+03
 -1.131305719595E+01 5.938385699631E+00 -8.297473961439E+01 -3.339468592765E+00 2.405829279438E+00 -7.940483086857E+01 -1.000175511047E-03 -1.545156761721E-02 4.738289672176E+00 -3.402662595503E-02 1.380942141057E-01 -8.836634577795E+00 -9.300144193264E-03 -1.403597148149E-02 1.251241631466E-01 2.596344096265E+01 -4.713814244201E+00 1.899192507786E+02
 -1.202386813155E+03 -4.112639546773E+02 -6.296358495246E+00 -2.374668524538E-02 -2.250085642287E-02 -1.090891382205E-02 -1.233696987701E+03 4.409420457088E+02 -8.191811252480E+00 -4.708221495585E+02 -5.358821608692E+00 -2.437992745368E+00 -2.510485142470E-04 6.530956746632E-03 5.692380537351E-02 -1.953129483443E+01 -3.266228697832E+01 2.776945582908E-02 2.792144703039E+03
 -4.110781533561E+02 -6.933951328755E+02 -3.919589907626E-01 3.804412061090E-02 1.325812332964E-01 -1.166619176823E-01 4.490712507688E+02 -7.327915819499E+02 5.127741401110E+00 -9.364552587793E+00 -1.462895619175E+03 4.025087456343E+00 -1.277902707612E-02 -2.941429557001E-02 -5.088233492139E-02 3.502665981860E+01 5.863098496463E+01 3.777714673972E-02 -2.381644436705E+01 2.769687590359E+03
 -6.132081304528E+00 -7.171734237673E-01 -8.068743588750E+01 1.180922680723E-01 2.660028854846E-02 -8.664357726566E+00 -8.333845178109E+00 5.154073829335E+00 -8.261594115904E+01 -2.320329816770E+00 4.091323484325E+00 -8.231698193729E+01 1.022943399161E-01 -4.211583219614E-03 -1.035676151359E+01 -3.838180171306E-01 -4.028752309866E-01 8.648703583082E+00 1.650386565101E+01 -8.181069039328E+00 1.912261119232E+02
 -8.443125028614E-03 -1.119532706259E-02 1.316574750511E-01 -1.197076272747E+03 -4.179588900475E+02 -7.960355243910E+00 1.798116089555E-02 1.336804686397E-02 -2.552756310376E-02 -1.197665426141E+03 4.461508037896E+02 -7.473805064411E+00 1.923244127892E-04 9.010991139816E-03 -4.886176048902E-02 3.652396174006E+01 -4.106675396419E-01 1.433890616072E-01 4.095133787593E+01 -2.941786772474E-01 1.743354668426E-01 2.738901397043E+03
 -1.205469813268E-03 1.570076154103E-02 4.037535187981E-02 -4.200428108325E+02 -6.961063127385E+02 -2.380321810309E+00 -1.658410379115E-02 -3.319724723504E-03 9.298608017581E-02 4.476050868262E+02 -7.434273262809E+02 4.062867725056E+00 4.444388272303E-03 -1.875880375675E-02 7.787028437290E-02 -6.492197706511E+01 7.255565777220E-01 -5.329801927175E-01 6.699678820322E+01 -4.992706831105E-01 3.350076079442E-01 -9.932135926901E+00 2.751738722390E+03
 1.046382716900E-02 -8.284502117510E-02 -9.050784030876E+00 -7.602314913618E+00 -2.659492109783E+00 -8.008152505705E+01 -2.186201930341E-02 8.629711172912E-02 4.408135559602E+00 -7.415777571477E+00 3.830091066958E+00 -8.155879301432E+01 -5.773773781346E-03 5.645691691818E-02 4.472699127098E+00 3.385968592245E-01 4.082171744833E-02 8.749530059604E+00 -1.616261566646E-02 1.231644640496E-02 8.949287472476E+00 1.743048787457E+01 -2.306715518555E+00 1.868242476278E+02
 -1.255833718245E-02 8.761362614848E-03 2.028337355478E-02 -1.017916809342E-02 -2.516205027192E-02 2.163138521869E-02 -1.241201182921E+03 -4.411584519661E+02 -4.336085539120E+00 -4.649216933567E-03 -1.722671820237E-02 4.408686430821E-02 -5.717354200002E+02 -9.855733249875E+00 -2.297895030374E+00 3.610409095203E-02 3.080752198660E-02 1.305187099165E-02 -2.124911565143E+01 -3.647443915306E+01 7.483520021691E-03 -4.448848433595E-03 2.199758135188E-03 -2.564142592153E-02 2.607862714258E+03
 -1.231765611030E-02 8.495037616430E-03 2.946880763690E-02 -9.231411172056E-03 -2.815702690331E-02 1.101284577913E-01 -4.562204493636E+02 -7.652653819138E+02 5.238830080529E-01 -6.809765320267E-03 -1.851032824711E-02 2.174888656396E-02 -1.985171810227E+01 -1.831973426042E+03 6.606234283291E+00 2.791999517853E-02 2.894690947434E-02 3.186429753643E-02 3.527993936123E+01 6.065285724921E+01 -7.912164636274E-02 -5.009767133538E-03 1.455971303882E-02 -7.901673477242E-02 1.866439530006E+02 3.042234748115E+03
 -3.195377871209E-02 -2.800849477847E-02 4.457966878904E+00 1.383832622436E-02 -3.345091176407E-02 -4.982289944688E-01 -4.262563342753E+00 6.262120573080E-01 -7.699994374267E+01 8.385083875700E-02 -1.554975483482E-01 -1.045246469197E+01 -2.298723750172E+00 6.679956087515E+00 -7.158607121979E+01 2.348990272278E-02 -3.182231558638E-03 -8.223242836437E-02 -3.169957229661E-01 -4.268917750042E-01 9.808561934037E+00 2.387150365744E-02 -3.580216440422E-02 2.538862054115E-01 1.158330593914E+01 -1.015699988524E+01 1.527758130478E+02
 9.799100336129E-03 -9.507905398717E-03 -8.759605633870E-02 6.874142630698E-03 1.615567075428E-02 -3.492453657195E-02 -1.262280487658E-02 2.005814008985E-02 3.295267890598E-03 -1.248905709500E+03 -4.279887186237E+02 -4.808605566980E+00 -1.265734032911E+03 4.579430017899E+02 -6.942013571316E+00 -2.667751541912E-02 -1.990203006976E-02 1.140637975623E-03 3.885095023747E+01 -2.908770421333E-01 8.729445066312E-02 -2.036194952510E+01 -3.332862968188E+01 -9.506973175628E-02 5.198437741556E+01 -5.140123660849E-01 2.361943108209E-01 2.887731114168E+03
 3.887860910389E-02 -1.520488621833E-02 -4.915843565948E-02 3.249480564643E-02 9.166079031247E-02 -7.485023861155E-03 -6.790904319842E-02 4.122212657804E-02 -9.022140956257E-03 -4.291776771942E+02 -7.263411786577E+02 -6.184559258395E-01 4.504048812897E+02 -7.861646327926E+02 4.035526783339E+00 -1.257509847503E-01 -9.642399779012E-02 -2.872735586660E-02 -6.917163469249E+01 3.783758196718E-01 -3.056742858744E-01 3.629227056000E+01 5.936897244279E+01 1.934687595791E-01 8.524284487550E+01 -8.116001142611E-01 4.587402197186E-01 -2.845642532294E+01 2.945562425424E+03
 -2.385523001168E-02 -7.064669390133E-02 4.206943119952E+00 5.951331771833E-03 -5.379004196139E-02 3.633209646579E+00 9.178725622046E-02 8.591735559188E-02 -1.104771491335E+01 -4.735655986263E+00 -8.249924267817E-01 -8.605463118945E+01 -6.715182151970E+00 4.202027567640E+00 -7.860317527926E+01 4.266476608670E-02 -4.280578519050E-03 -1.297623956345E-01 3.755306269107E-01 9.879470278847E-02 9.126966516171E+00 -2.281521243001E-01 -4.032234844743E-01 9.824728524011E+00 -2.034245195246E-01 -1.299458916684E-01 1.139057129181E+01 1.336994175714E+01 -6.502405320129E+00 1.893760993757E+02
 3.927234746422E-02 -5.391157200718E-02 6.479568214321E-02 1.732462658583E-02 2.267447644104E-02 1.849777183910E-01 -3.677635756007E-02 5.562279924023E-02 1.613931602502E-01 6.593337596567E-02 -2.949280419897E-02 -4.082040652622E-02 1.299593156138E-02 1.810645453870E-02 1.801154033495E-01 -7.996386084024E-02 -3.256567613026E-02 -1.440635600734E-01 3.440564219227E-02 -1.183098899401E-02 7.119196164853E-02 -2.672288173420E-02 6.820174918920E-03 -1.898212347628E-01 3.546412663796E-02 1.011512734031E-02 -1.578236198076E-01 -2.992833468763E-02 -2.657495858889E-02 -3.308130259627E-01 2.807526298769E+03
 -6.375507116965E-01 2.136925437073E-01 1.012787903115E-01 -3.056231156905E-01 -1.632970395581E+00 3.956910763770E-01 9.133079949787E-01 -6.082503527668E-01 3.722556957262E-01 3.162925224706E-01 -1.758125116531E+00 1.184013429507E-02 1.646722232652E-01 4.388148526840E-01 5.568191179751E-01 1.724590825454E+00 1.482793202754E+00 8.940754144331E-02 -3.613660851214E-01 1.590956902141E+00 5.729243824254E-02 -1.692116836013E-01 2.612721453573E-01 -3.907738770827E-01 -3.551285141127E-01 -3.777832721857E-01 -3.049235003705E-01 2.073852173501E-01 1.374548703635E+00 -7.500764222463E-01 -4.353219454512E+01 2.762101571663E+03
 -1.467466370137E-01 2.518056029062E-02 1.456993299278E-01 -7.813535641005E-02 -9.204097771928E-02 6.675704298356E-01 -1.633695882130E-02 -2.394159206187E-01 3.322630149659E-01 -2.254275743712E-01 1.848904732440E-02 3.718113615450E-02 1.510934669489E-02 -6.177045361153E-02 7.301643734825E-01 2.108307458375E-01 2.212824032163E-01 4.612920348069E+00 8.697692127374E-02 1.826987257866E-01 1.985541698379E-01 -8.600897958103E-02 1.672664285990E-01 -2.670022955170E-01 -4.720024098123E-03 7.625805882587E-02 -4.636451228397E-01 1.438564881585E-03 1.888249095818E-01 -9.755840272681E-01 5.550802172176E+01 -2.074414405019E+01 1.928128465920E+02
 1.185436320059E-01 -7.290985202337E-02 1.075926064713E-01 4.024938958214E-02 2.893678586325E-01 2.101775377097E-01 -1.399326520145E-01 1.683651738294E-01 2.081668350855E-01 9.108116343552E-02 1.770981547387E-01 -1.109775408058E-01 -2.202056855301E-02 -3.253805024876E-02 3.793296262931E-02 -2.796751566202E-01 -2.709587975387E-01 2.453297397496E-02 5.557686405487E-02 -2.465566029900E-01 1.164348978439E-01 6.309596724625E-02 -8.527498754738E-02 -2.304770939007E-01 8.938542906395E-02 6.019113404228E-02 -1.640003422330E-01 -5.453633384330E-02 -2.463230205942E-01 -2.790550052327E-01 4.618459916341E+01 8.070833755357E+01 1.297621184775E+00 2.740416778943E+03
 5.047071260979E-01 -1.475018490833E-01 -8.210213103335E-02 2.888485952318E-01 1.282422460743E+00 -2.469800470732E-01 -7.478857236700E-01 5.116361330066E-01 -2.395363394194E-01 -2.282375137251E-01 1.411368492536E+00 -1.892626027012E-02 -1.241817400937E-01 -3.417362545906E-01 -3.889544821355E-01 -1.436857228363E+00 -1.227666388360E+00 -5.589527274340E-02 2.813653253077E-01 -1.300148105109E+00 -3.019571017406E-02 1.137208636875E-01 -1.868137283371E-01 3.006826146233E-01 2.961710701913E-01 2.932323615228E-01 1.958643410015E-01 -1.849290682654E-01 -1.110613167261E+00 5.158867249279E-01 -1.080537928959E+00 1.510317737584E+01 1.334355198494E+00 2.571020683217E+02 2.936042849034E+03
 -8.825167456690E-02 1.946096483331E-02 -1.058759705981E-01 9.583695897939E-02 -1.709083291558E-01 -2.113566819409E-02 -1.358150626183E-01 -9.854860567318E-02 -2.502228212402E-01 -2.079706118004E-01 1.041540016956E-01 1.612194237749E-01 2.327625439488E-02 -2.553228116835E-02 2.713120432440E-01 -1.132993776993E-01 9.051992851140E-02 1.653090214781E-01 1.028967504868E-01 3.104314322963E-02 -9.494528302455E-03 -2.141313601539E-01 2.334690884365E-01 2.596353911980E-01 8.481975152006E-03 -1.839530160963E-02 3.826414034797E-02 -2.455618334470E-02 1.024027509467E-01 -1.533898905163E-01 5.312064454571E-01 2.069391507991E+00 1.308170983158E+01 7.588660530313E+01 1.454829900938E+01 1.529837643539E+02
 -2.015891464494E+01 -3.360984392895E+01 -4.063116043555E-01 3.718224350379E+01 -4.742931796870E-01 3.554080344597E-01 7.270796487369E-02 -3.490066156019E-02 -6.690535567605E-02 1.986515667187E-02 -8.964178413294E-02 -3.053386221193E-02 -2.210079089950E-03 1.628628209708E-02 -5.512600609445E-02 -1.226766807428E+03 -4.240828195029E+02 -1.181837918301E+01 -3.412082832167E-02 7.139684149284E-02 -1.416058423027E-01 2.939490877177E-02 -1.639748819867E-02 -7.316472669004E-03 -2.749653323786E-02 -1.826186743223E-02 2.948210507933E-02 2.744601400944E-02 6.340727854614E-02 7.676261927851E-02 -1.878767695320E+01 3.272356744156E+01 -7.744996045341E-01 2.957652206984E-01 7.559918046628E-01 -1.645773576606E-01 2.767348649340E+03
 3.578845558973E+01 5.995340931899E+01 3.704640940308E-01 -6.627613690907E+01 5.434771771739E-01 -3.106405828255E-01 1.088327145535E-01 -8.676092202529E-02 1.795764339799E-01 2.812940411984E-02 -2.061885703023E-01 1.454695144794E-02 2.853345255458E-02 4.862921167642E-02 2.168702385551E-01 -4.292848877585E+02 -7.087276968217E+02 -3.178433421292E+00 -4.462874329692E-02 2.023042605794E-01 4.554146278430E-02 -3.284727333274E-02 6.029115516114E-02 -7.732868306990E-02 -3.685993823525E-02 -3.319772746509E-02 -1.466458683528E-01 1.236017408439E-02 1.779922438478E-01 -2.915156246933E-01 -3.210415393126E+01 5.407815480186E+01 -7.165280213851E-01 3.212647757248E-01 2.221737861197E+00 -9.813122812629E-03 9.876662358376E+00 2.786124011365E+03
 -3.028002415368E-01 -5.778673143514E-01 9.707387369800E+00 3.809043462919E-01 9.443780351623E-02 9.485503955056E+00 -2.799414892280E-02 -1.486014558543E-01 2.959173809753E-01 -1.817859478814E-01 1.878370369226E-01 -2.195571040103E-02 -2.462969701858E-02 -7.830265965147E-02 4.135779833414E-01 -1.189328822741E+01 -2.611431686681E+00 -8.159340137989E+01 1.167463890341E-01 5.719906759181E-02 4.652996805083E+00 -5.987317518881E-02 -4.321160899815E-02 4.110776726284E+00 2.524097035778E-02 1.144848723430E-01 -3.275871434819E-01 9.444798336036E-03 -2.845501591765E-02 -5.843735631492E-01 -4.494068641840E-01 7.212197312063E-01 8.989479266559E+00 1.349536903515E-01 -2.222075779372E-01 1.445237077011E-01 3.289959980561E+01 -1.219206445188E+01 1.901208286680E+02
 -1.273651014255E-01 4.361392682934E-02 9.465062711506E-02 -1.875748760587E+01 -3.170594453276E+01 -2.552558118262E-01 1.589697204096E-01 -1.500467698339E-01 1.913441104473E-01 2.697240166068E-02 -3.116645339601E-01 1.033919060876E-03 4.390327452923E-02 7.141930490587E-02 3.498454199933E-01 3.289240921421E-01 3.098279943770E-01 2.987228371331E-01 -4.660577302304E-02 3.288746169603E-01 9.150119610889E-02 -7.926095992477E-02 9.083572152764E-02 -2.797298988084E-01 -5.575835015290E-02 -4.680601088198E-02 -2.230596111512E-01 2.102251372183E-02 2.887857904983E-01 -4.541651017479E-01 3.822175664878E+01 -7.203964576544E+01 4.596891819045E-01 -2.307355839689E+01 4.425965466505E+01 2.781165930026E-02 3.950534905451E+01 6.645596922496E+01 9.250687442075E-01 2.811325046567E+03
 1.514312791265E-01 -1.072493323376E-02 -6.646892987782E-02 3.360720167739E+01 5.665759746457E+01 1.138099397927E-01 -1.665346644144E-01 1.462503316316E-01 -2.343127515326E-01 -5.478626073275E-02 3.947482896096E-01 -2.199085128280E-02 -5.377859042309E-02 -1.008691409760E-01 -3.881098956945E-01 -3.719876954335E-01 -3.758872835953E-01 1.752556113392E-02 3.303460520885E-02 -3.886195470616E-01 -1.123844941548E-01 9.447510266917E-02 -1.090509197447E-01 2.124526719320E-01 5.648853928422E-02 6.720339662666E-02 2.392857515577E-01 -2.004161177986E-02 -3.289528210131E-01 5.506622543360E-01 2.998760743183E-01 5.575632413176E+00 -8.539915317050E-02 -4.258347384703E+01 6.971275385930E+01 -2.696574826936E-01 -1.171452317407E-01 2.658152457909E-01 -1.925281355131E-01 -6.502671117375E+01 2.763842044287E+03
 1.977425759241E-01 -6.887205590067E-02 -2.875398147598E-01 1.322949018498E-01 -7.556757269951E-01 7.148413518343E+00 1.323465511649E-01 -5.490160475026E-02 -6.412986320321E-01 2.792609680083E-02 -4.008223551769E-01 1.094723569669E-01 -5.801927672187E-02 -6.079526111350E-02 -6.232993031053E-01 -3.219819259355E-01 -1.326650718386E-01 -8.835256129922E+00 -7.246201817701E-02 2.045395538871E-01 -2.590277211695E-01 2.184196078667E-01 2.034302151813E-01 4.786191187846E+00 -1.104964947553E-01 1.474431384232E-02 6.059417307780E-01 2.055651207159E-01 2.281359588603E-01 1.014191408583E+00 -1.545320603934E-01 -2.058438266110E+00 9.763604243810E+00 -1.800270053976E+00 1.914804262385E+00 1.395957460127E+01 6.205128340909E-01 1.235595262958E+00 7.865260417303E+00 3.159609332198E+01 5.366070226866E+00 1.885180479170E+02
 -5.298472071793E-01 2.367421793491E-01 -2.034139541377E-01 -3.275148924867E-01 -1.269083415873E+00 -5.111019417394E-01 8.112153504751E-01 -5.795189108216E-01 -2.465795729733E-01 1.256316047259E-01 -1.342699250763E+00 5.718036483623E-02 6.369210483013E-02 2.897345741386E-01 -2.268074512083E-01 1.537777714832E+00 1.208349173421E+00 -3.725526123570E-02 -3.499548421988E-01 1.259169999850E+00 -1.884819826428E-01 2.963697206556E-02 1.292070884468E-01 2.145478663855E-01 -3.621630673095E-01 -3.122457672908E-01 2.608227398692E-01 2.736199550379E-01 1.098645549104E+00 4.329713661168E-01 -1.272322936936E+03 4.311317641076E+02 -3.141635340967E+01 -5.081129211086E+02 -1.028128014501E+01 -1.508640866618E+01 -1.048470503745E+00 -2.035493809098E+00 -4.563740690708E-01 -2.940602002830E+00 3.012993619982E+00 9.639093514470E-01 2.546273207584E+03
 -3.737317446757E-01 1.702900867630E-01 -3.821019958027E-02 -2.170356202256E-01 -9.315859466411E-01 -1.400269284966E-01 5.517147390091E-01 -4.620655270498E-01 -1.015849491028E-01 1.341437330921E-03 -8.806782389782E-01 1.078845147570E-01 7.617181166110E-02 1.907579976143E-01 1.208843047448E-01 1.060882738164E+00 9.344260283776E-01 6.441307130067E-02 -2.223180867224E-01 9.209060717668E-01 -9.753935419482E-02 -8.689309179177E-02 1.612351611545E-01 4.790881656490E-02 -2.539258899098E-01 -1.987977778192E-01 6.918327638424E-02 1.628688231536E-01 8.192197560813E-01 5.271732818328E-02 4.749340948834E+02 -7.551807244336E+02 8.585451329038E+00 -4.762906513694E+01 -1.642629374831E+03 -8.075620714453E+00 -7.245518634372E-01 -1.455892834607E+00 1.312193417265E-01 -2.181696117303E+00 2.145209672004E+00 4.499140088695E-01 -1.440974413903E+02 2.752066985885E+03
 3.511039901310E-02 -1.167826598697E-02 2.000951413486E-02 -5.751052965695E-02 7.959783567437E-02 -1.306345379369E-01 1.054521787985E-01 2.759964329190E-02 2.499486468278E-02 9.474849611753E-02 -8.497950141425E-02 -4.837187811753E-02 -1.134470580459E-02 1.791584549417E-02 -2.485515505052E-01 1.189799392100E-01 -2.280229544989E-02 -1.209720739627E-01 -5.883554215624E-02 2.389323236267E-02 -7.346710257552E-02 1.101851609280E-01 -1.421330730844E-01 -1.555666746887E-02 -3.005478351329E-02 1.665822943580E-03 9.872159696643E-02 3.443504452499E-02 -1.997228442906E-02 3.715614133097E-01 -3.073137393623E+01 9.619297587313E+00 -8.811484864356E+01 -1.526000843238E+01 -1.171145392523E+01 -7.965590700912E+01 -2.206320566702E-02 8.809687125707E-03 4.420384782961E+00 4.912898344834E-03 2.224458130623E-01 -1.126191798969E+01 9.816615775554E+01 2.374352675591E+01 2.403514990439E+02
 1.391436790789E-01 -4.156830912085E-02 -8.606995674423E-02 8.663381383475E-02 3.678365958620E-01 3.017267099582E-01 -2.397299382045E-01 1.521834123416E-01 -2.657567025614E-02 -7.440311133578E-02 4.253618693964E-01 1.105055203819E-02 -3.720438281460E-02 -1.033131303114E-01 -8.010853428631E-02 -1.970134558626E+01 3.393774154242E+01 -5.540762300027E-01 9.624440940319E-02 -3.945700622506E-01 2.396513021956E-02 2.773320907261E-02 -3.878502862866E-02 1.181300377118E-01 9.425431710733E-02 8.936604445892E-02 3.090457771133E-02 -5.970669603824E-02 -3.337119833770E-01 8.346008362623E-02 -1.200150234096E+03 -4.098653300434E+02 -1.873003110482E+01 -7.070253168138E-01 -4.109017615666E+00 1.646895270944E-01 -1.185090942584E+03 4.281381416719E+02 -1.745668088763E+01 -4.682214185378E+02 -1.804977165689E+01 -5.149114183046E+00 -1.650616691840E+01 -3.118719554739E+01 -3.326574072853E-01 2.739530866666E+03
 1.382270384837E-01 -6.116742784690E-02 -3.702162135130E-02 3.776758869959E-02 3.461409479183E-01 -4.958883741840E-01 -1.531771915890E-01 1.241072390230E-01 -1.744979932397E-01 -4.390124935712E-02 3.070172768339E-01 -5.740782649235E-03 -4.420428782802E-02 -8.092465162574E-02 -2.759571238873E-01 -3.279432082432E+01 5.760493433197E+01 -6.249535290464E-01 6.229178386156E-02 -2.959478023750E-01 -2.262821022198E-02 6.875279696956E-02 -8.782201826508E-02 1.074495861642E-01 5.656632367587E-02 6.455574968800E-02 1.666562637790E-01 -1.790026374422E-02 -2.688148158051E-01 3.473702774532E-01 -4.206765867912E+02 -6.959305656969E+02 -5.168953973158E+00 -3.556710058367E-01 -3.316099968775E+00 -1.117603788019E-01 4.286212001903E+02 -7.147513232565E+02 7.766982340919E+00 -5.127431765398E+00 -1.483576409661E+03 -2.994498727419E+00 3.878624170070E+01 6.241652180812E+01 5.068132760143E-01 -6.422191397444E+00 2.779498217363E+03
 6.038490480509E-02 -2.878141105071E-02 4.606396445604E+00 -1.500121990696E-01 3.841421707015E-01 -8.670769004702E+00 -7.944633551842E-03 -6.594144900129E-03 1.044365207309E-01 -4.851918317676E-02 1.159912748274E-01 -3.667571075495E-02 -2.972989055513E-02 -4.495799994418E-02 4.092190674842E-03 -6.255912080778E-02 2.675035342481E-01 8.827956888877E+00 6.112795462592E-02 -4.306911180836E-02 1.771825093933E-02 6.938305009219E-02 -1.352543315546E-01 -7.353751645549E-02 1.801117102915E-02 7.038224186130E-02 -6.011778674199E-02 1.577724819891E-02 -9.954086388422E-02 -7.862321469285E-03 -1.937751047631E+01 -4.769425496478E+00 -8.073928758840E+01 8.507726798963E-01 -9.318762329818E-01 -1.134633229904E+01 -1.708991839347E+01 7.557434674682E+00 -8.023671121088E+01 -5.013975308142E+00 -2.951285529664E+00 -8.217353320370E+01 -3.072427489809E-01 -2.443034292016E-01 1.138389123311E+01 4.073306419823E+01 1.465588693591E+00 1.888005617806E+02
 1.872544745749E-02 1.352008233497E-02 -7.305109221109E-02 8.569295579009E-03 7.393166294507E-02 -2.704857887903E-01 -1.227781148532E-02 2.014472505825E-02 -1.064283083377E-01 -1.270720606912E-02 6.468812747958E-02 -1.343740970853E-03 -1.878625806915E-02 -1.987216645843E-02 -1.774944879300E-01 -3.540540009036E-02 -6.817988466662E-02 -6.126278598211E-02 -9.691572335919E-03 -6.920194352886E-02 -5.747268202024E-02 4.474794000839E-02 -3.523878192751E-02 1.253331540236E-01 -1.586380510992E-03 3.948690163726E-03 1.162688409441E-01 1.135895643878E-02 -5.700541957914E-02 2.603722308807E-01 2.135206244702E-01 1.084318774912E+00 1.547606044767E-01 -1.446374881030E+03 -5.094394098302E+02 -3.376530215897E+01 -2.581340240357E-02 1.243541913586E-01 -2.156653837508E-01 -1.330953615905E+03 4.576860155267E+02 -1.518903287899E+01 5.075499950849E+01 -1.107169940022E+00 7.366573462076E-01 4.056228086366E+01 -4.281431987788E-01 -2.846611838059E-02 3.065872354368E+03
 -2.063232907772E-01 1.928951428224E-02 7.647639320008E-02 -9.514279099506E-02 -5.324090406400E-01 3.410212942846E-01 2.300302505983E-01 -2.131992207343E-01 1.798840874100E-01 4.438022483937E-02 -5.274296315705E-01 5.133941380793E-02 7.200597909455E-02 1.334272736839E-01 4.283626418306E-01 5.057369224816E-01 5.233734425309E-01 6.306192308615E-02 -5.008078587704E-02 5.276873041972E-01 5.507288932497E-02 -1.418477327840E-01 1.523274618497E-01 -1.544692177422E-01 -9.278498141052E-02 -1.034491431666E-01 -2.027784407280E-01 3.947644327211E-02 4.602550805763E-01 -4.674480754858E-01 -5.011763446260E-01 -6.860742889396E+00 1.419894376526E-01 -5.097548863024E+02 -8.398695575777E+02 -1.491726717461E+01 -2.346407611239E-01 -9.197409031645E-01 2.341671454962E-01 4.431703125173E+02 -7.536864526079E+02 1.741912963015E+00 -9.219491186569E+01 -7.957272681262E-01 -2.449512834601E+00 7.578060720630E+01 8.459990687335E-01 8.755634599760E-01 4.325856501828E+01 2.549202842849E+03
 2.547181302774E-02 5.039604762524E-02 2.651944598036E-01 -1.519521189273E-01 9.865146020596E-02 5.583078690442E+00 1.612111984482E-02 -5.197821436424E-02 5.991774827973E-01 -2.432210169313E-02 1.094277970490E-01 -1.162069371403E-01 1.830734627133E-03 -5.572285032924E-02 5.231184218041E-01 7.244502883718E-02 3.712393110026E-03 6.754615044220E-02 -1.723749156573E-02 -3.088370768067E-02 2.278758125550E-01 6.422914522839E-02 -2.652678764487E-02 -5.153215101905E-01 3.601361368778E-02 1.026778897918E-01 -5.427406074694E-01 -4.058518136425E-02 -4.734112752055E-02 -8.765498467931E-01 6.132816193441E-01 4.912338979733E-01 -1.067980706995E+01 -3.159662080888E+01 -1.497535171256E+01 -7.140009758609E+01 -8.723563254109E-02 1.749789746337E-01 5.194559449325E+00 -1.530711904636E+01 2.158043857798E+00 -8.020993331441E+01 -4.591667637064E-01 -7.723870611034E-01 1.466692287380E+01 4.311245883350E-01 -3.056175561043E-01 9.745038452145E+00 5.379164554634E+01 2.300964845946E+01 1.543516360568E+02
 5.218084343399E-02 -1.185540431893E-02 -1.892271552436E-02 -1.254295781638E+03 4.514672018683E+02 -9.962314985668E+00 -7.130205145526E-02 5.362055623656E-02 -8.260870897992E-03 -2.185367611481E-02 1.418756901289E-01 -7.394492325749E-02 -1.262945782370E-02 -2.825738392729E-02 -5.289800981407E-02 4.006181164786E+01 -5.751565034099E-01 2.172494514197E-01 1.983879546543E-02 -1.287237118168E-01 -4.281298850930E-02 -1.994783109890E+01 3.547038818529E+01 -4.481072746160E-01 2.851170122662E-02 2.262532301604E-02 2.583190663975E-02 -1.761006804036E-02 -1.184677762308E-01 6.752372566478E-02 8.355072181648E-02 1.717621029391E+00 -5.013779682822E-02 -1.150097510556E-01 -1.376294116661E+00 -1.634872384788E-01 9.588305594370E-02 2.227396329486E-01 1.218023656701E-01 -1.128293648327E+03 -3.789743333160E+02 -1.299541835331E+01 1.102137531978E+00 7.971765523110E-01 4.544548350366E-02 3.527960022178E+01 -5.736182112661E-01 2.718009016410E-01 -1.829646754598E+01 -3.244465854591E+01 -3.714853856794E-01 2.758960775879E+03
 1.621948488146E-03 -4.077046443006E-03 -4.916144626400E-02 4.629310625386E+02 -7.485164062831E+02 4.363484488555E+00 2.469981969088E-02 2.208864430560E-03 -6.693764894476E-03 1.931130207843E-02 -4.435793084562E-02 1.197590850608E-02 -5.043614948266E-03 5.783547875352E-03 -7.857993781709E-02 6.752137918338E+01 -7.606861792397E-01 3.680910150212E-01 -6.053748141461E-03 2.159116164317E-02 -1.222617717459E-06 -3.349673099576E+01 5.960374214962E+01 -2.463485795463E-01 -9.015647903392E-03 -3.468884291224E-03 4.230319281140E-02 1.448787985342E-02 1.261915275857E-02 6.648834647459E-02 -4.757968408835E-03 -2.238780997460E-01 -2.286710924344E-01 6.081108639649E-02 2.058452936809E-01 -1.619264495287E-01 -4.390566821119E-03 -6.827870987305E-02 -1.227874667626E-01 -3.806419832427E+02 -6.621864302464E+02 -4.747423615848E+00 -1.526052962250E-01 -1.472538419135E-01 1.013499234111E-01 -6.389938682968E+01 4.569179889532E-01 -9.801685578782E-01 3.261362929243E+01 5.902042311467E+01 4.196886168310E-01 -2.277427345884E+01 2.847413721141E+03
 -1.928293001256E-01 1.379672864309E-01 4.343778247324E+00 -1.032109295412E+01 4.136374148467E+00 -8.456255217221E+01 1.241918333321E-01 1.658582440349E-01 -7.554358818343E-01 3.057746067371E-01 -2.973475864283E-01 4.690013572876E+00 1.483733300496E-02 1.317931397964E-01 -8.984720671597E-01 5.382780488153E-01 -9.635868410447E-02 8.251917851338E+00 -1.341936010737E-01 -3.133930227247E-02 -3.237640888736E-01 -3.507041456597E-01 2.584969560948E-01 1.029016994306E+01 -8.904355224718E-02 -1.999125106928E-01 7.744022074436E-01 5.779818471624E-02 1.592311704363E-01 1.309235422202E+00 -2.065382034182E-01 -1.670764057472E+00 3.133867452600E+00 -8.022735461677E-01 1.526295272292E+00 5.720729800930E+00 -1.634822181083E-01 -6.943835902923E-01 -9.473626225441E+00 -1.304498328247E+01 -4.767568746205E+00 -7.971390797599E+01 8.191327576275E-02 -7.437972998906E-01 4.895355813921E-02 3.450370759178E-01 9.344300163204E-01 7.922499868160E+00 4.556472879962E-01 -9.528988874825E-01 9.011242934147E+00 2.633271749797E+01 1.086864494392E+00 1.912154190482E+02