#BIOSYM hessian 1
@Type: Hessian Update
@Units
 distance: 	A
 energy: 	Kcal/Mol
#header
@natom 67

#label
C1      C2      C3      C4      C5      C6      C7      C8      C9      C10     C11     C12     C13     C14     C15     C16     C17     C18     C19     C20     C21     C22     C23     H24     C25     C26     C27     C28     C29     C30     C31     C32     C33     C34     C35     C36     C37     C38     C39     C40     C41     C42     C43     C44     C45     C46     C47     C48     C49     H50     H51     H52     H53     H54     H55     H56     H57     H58     H59     H60     H61     H62     H63     H64     H65     H66     O67

#element
C  C  C  C  C  C  C  C  C  C  C  C  C  C  C  C  C  C  C  C  C  C  C  H  C  C  C  C  C  C  C  C  C  C  C  C  C  C  C  C  C  C  C  C  C  C  C  C  C  H  H  H  H  H  H  H  H  H  H  H  H  H  H  H  H  H  O 

#matrix
201
 2.783059514478E+03
 -2.477150475429E+01 2.816922964119E+03
 -2.217010238364E+01 5.866983673321E+00 1.938798869908E+02
 4.188368102747E+01 6.580062976746E+01 6.671355155541E-01 2.790404880370E+03
 -4.213755653259E+00 -5.323946201819E-01 1.162204253123E-01 -2.153857401577E+00 2.734269810895E+03
 -2.043199311461E+00 -8.689696424622E-01 7.911136955666E+00 -1.203401315211E+01 1.317835928355E+01 1.990518651102E+02
 -1.953550321516E+01 3.456388293790E+01 1.457702852483E-01 -2.013769519562E+00 1.484405368503E+00 1.302293398733E-01 2.812555157976E+03
 -3.395959145569E+01 5.943885504469E+01 1.236299063827E+00 8.458538705584E-01 -7.166395897435E-01 -9.982233047378E-02 -3.377713087602E+01 2.815221526524E+03
 -8.186342124231E-02 -1.054264876948E-01 9.362563326672E+00 1.332168149714E-01 -1.901820707309E-01 -4.383448460263E-01 -4.783698951250E+01 -2.793446230018E+01 1.973390745459E+02
 3.783878805668E+01 -6.828779810446E+01 1.654604874521E-01 -2.027764412582E+01 3.335567049385E+01 5.209065526993E-01 4.389446597746E+01 7.216218890906E+01 -1.160831090576E+00 2.778246885251E+03
 -3.710024175921E-01 1.152339567515E+00 -3.416114190095E-01 -3.182597949539E+01 5.855816558506E+01 3.358847822825E+00 -1.346639392010E+00 -1.356914792845E+00 2.454751566981E-01 -2.566098765167E+01 2.831899138836E+03
 6.372497822692E-01 8.747674240329E-02 8.896754809841E+00 -3.749922288717E-01 -7.688393928580E-01 8.158143769624E+00 -4.444878745820E-01 -1.041385555510E-01 1.060354898029E+01 -1.020813749284E+02 -2.844997819253E+01 2.044467113843E+02
 -3.791035791566E-01 3.694202666802E-01 1.142551154471E-01 2.353417892667E+00 -2.253023375197E+00 -8.792831648174E-01 4.249206486586E+01 -7.334352971759E+01 1.550063255451E+00 -2.229133307592E+01 3.849014581480E+01 -3.764519625493E-01 2.634151471200E+03
 4.493800536859E-01 -4.342390193035E-01 7.047765390481E-01 -3.558499179578E+00 4.267568490087E+00 1.183202123676E+00 -1.076853854551E+00 -1.064910809998E+00 -7.444872147609E-01 -3.356816439918E+01 6.111387615147E+01 1.042913564653E-01 -2.215155742233E+02 2.894454012989E+03
 -8.227841434861E-02 3.304428763555E-01 5.282151912390E-01 -2.792971699987E-01 -3.802041089274E-01 -4.085813858756E-02 2.593002563441E-01 1.744372283806E+00 9.536126615554E+00 7.960340755533E-01 -2.793542855255E+00 7.360472693781E+00 -5.503206950267E+01 -7.079295232477E+01 1.601277293684E+02
 -1.229007087099E+03 4.487169575249E+02 6.772892980353E+00 -4.629780541706E+02 -2.073909941378E+00 -5.422248100093E-02 -1.773141367401E-01 6.128006427063E-02 3.198353016711E-01 8.097521982205E-01 8.489545972250E-02 -7.802353007639E-01 4.354890481525E-01 -1.131687158587E+00 3.107045502402E-01 2.815399553717E+03
 4.430193108828E+02 -7.410758540570E+02 -9.241853715493E+00 -2.343813729297E+00 -1.430580047923E+03 -1.697347151927E+01 -9.535435808674E-01 -8.007938525143E-02 -1.036556540189E-01 2.148337812267E+00 -1.767536198426E+00 2.522406285149E-01 5.992422910120E-01 -1.718637341957E+00 -4.536210652262E-02 -6.471242304119E+00 2.782649387299E+03
 4.378981713046E+00 -5.198779387764E+00 -8.410217647768E+01 1.912974133897E-01 -2.274921785686E+01 -7.906069817003E+01 -5.896858187511E-01 -7.026257740425E-01 4.912265947352E+00 3.574132008392E+00 -2.975018172697E+00 -1.158107811449E+01 7.902738176308E-01 -2.904924331388E+00 5.676504732768E-01 1.442526217244E+01 4.016739297082E+01 1.968476038076E+02
 -1.193470605821E+03 -4.125618945131E+02 1.253230445702E+01 1.022934049242E+00 1.107008867079E+00 1.318035773591E+00 -1.260201730919E+03 4.491874125377E+02 1.852502642605E+01 -4.831087552987E+02 -1.390439143054E+01 1.025272100302E+01 1.165498242979E-02 7.527983120553E-01 2.519585217997E-01 -1.918094714703E+01 -3.318738004139E+01 1.154704609605E+00 2.816096509747E+03
 -4.112400921341E+02 -6.992086537727E+02 6.071568870221E+00 -2.301043827633E+00 2.329301656149E+00 7.894222484839E-02 4.504712703663E+02 -7.515277495355E+02 -4.107164332713E+00 -1.734515328623E+01 -1.512280594387E+03 1.519092413236E+01 -7.036199612100E-02 -1.196615966605E-01 -1.514586019715E+00 3.390778185455E+01 5.791882462137E+01 -1.105121915651E+00 -2.565315709132E+01 2.844987804148E+03
 1.553262236384E+01 7.563540041074E+00 -8.163918989057E+01 -9.197933188531E-01 -2.267896985007E-01 -8.746300243723E+00 1.609400231197E+01 -2.308011521653E+00 -8.652113396878E+01 1.347740549045E+01 1.174368960448E+01 -8.713593300314E+01 5.658972823021E-01 4.588179018394E-01 -9.195538063569E+00 1.049043196862E+00 -6.486969632064E-01 9.814431264758E+00 -4.056463581099E+01 -1.698616568742E+01 1.971887832205E+02
 2.332971385748E+00 9.686069512606E-01 9.391629294451E-01 -1.215766769157E+03 -4.165406933961E+02 1.542602121551E+01 -5.561854994476E-01 -8.407354667654E-01 -2.228572535945E-01 -1.211167902006E+03 4.424979896018E+02 4.349561939586E+01 6.506068290731E-01 -3.780870054270E+00 6.724443391079E-01 3.435471936142E+01 -3.007270895916E+00 -2.806266847282E+00 4.072417941734E+01 -4.990498194927E-01 -1.730461567635E+00 2.793790113268E+03
 -2.231759632774E+00 -1.766709174511E-01 5.540476915374E-01 -4.159549862814E+02 -7.045344628063E+02 2.374492760443E+00 2.340106950079E+00 -4.225348507290E-01 -8.830276354060E-04 4.432913340842E+02 -7.432128105335E+02 -1.598247964059E+01 -3.279547563244E+00 7.523304939165E+00 8.604515928806E-02 -6.401043022753E+01 3.633165621973E+00 3.939599514644E+00 6.976351593037E+01 3.135974471323E+00 -2.104964638320E+00 2.563965222984E+01 2.782750988059E+03
 -1.372684404560E+00 -1.438902235056E+00 -8.926486307954E+00 2.254011706782E+01 1.082153733250E+01 -8.100617781629E+01 -5.312660662435E-01 -8.982808980232E-01 2.939611115135E+00 3.674865627956E+01 -1.218311564109E+01 -8.985490876760E+01 -1.099233027319E-01 -6.612499130424E-02 8.153087868255E+00 -2.468371899151E+00 -6.511605118604E-02 1.132645401923E+01 1.736871795902E-01 1.613546475384E+00 1.119061043341E+01 -7.401655517029E+01 -2.090930184853E+01 2.124688406611E+02
 -1.262428006043E-01 2.442224448520E-02 -1.367885278591E-02 4.728777137462E-01 -5.720899537734E-01 4.039645218419E-01 -1.199767719788E+03 -4.054486158249E+02 2.427664943644E+01 -4.678064540352E-01 9.075772045225E-01 -6.329370083604E-01 -5.278521307912E+02 2.393946630379E+00 7.884075065262E+00 5.877681079224E-02 3.504088376002E-01 -8.439915942635E-02 -1.987101867346E+01 -3.335193810236E+01 1.561520468800E+00 6.340005593624E-01 -9.258269158202E-01 7.445692329400E-01 2.779290384185E+03
 -1.897394405890E-01 4.401703865806E-01 -6.397058653679E-01 2.445561425943E+00 -2.511735805034E+00 -6.054364210209E-01 -4.129942553157E+02 -6.955257547811E+02 1.794104694040E+01 -7.882773651763E-01 1.379269437233E+00 -1.284146021770E+00 1.801923678767E+00 -1.630916563509E+03 4.200934888368E+01 8.502602713721E-01 1.179518269371E+00 2.064928267623E+00 3.450781747467E+01 5.906065037159E+01 -2.231094627574E+00 2.582058273476E+00 -5.363589940012E+00 7.592190940494E-01 -2.897879597999E+01 2.948206607150E+03
 -1.793723383782E-01 -2.751477932060E-02 4.223488110233E+00 -1.052700811894E-01 -9.664773228797E-01 1.161883006613E+00 2.569276452406E+01 1.689509465205E+01 -8.519582044009E+01 -1.689588722737E+00 8.294165709507E-01 -1.133268071629E+01 8.603791027314E+00 4.199588684320E+01 -7.866536438085E+01 1.533355829848E-01 1.142312679160E+00 -1.405607001465E+00 2.278502090472E-01 1.559225971791E-01 1.087460778709E+01 5.765804726375E-01 -1.253928094442E-01 2.165919799521E+00 -3.926449087680E+01 -6.625698998204E+01 1.881359204143E+02
 4.394738427375E-01 -1.599676137673E-01 -1.452097396982E-01 -2.226726458580E+00 2.402588833242E+00 9.483553205575E-01 -1.126476375243E+00 1.704776770488E-01 5.467655148150E-01 -1.199471942847E+03 -4.125517008205E+02 4.893545935188E+01 -1.327653487697E+03 4.986500102204E+02 2.032339296501E+01 -4.239733323050E-01 -8.668750032523E-01 -1.032955961272E+00 3.798637853694E+01 -6.226649402394E-01 -2.920391788661E+00 -2.160679339752E+01 -2.799794716743E+01 2.341215334695E+00 5.037682315887E+01 9.291003882178E-01 -6.851576015903E-01 2.885858044411E+03
 -1.296831925427E+00 5.264917802551E-01 -1.522793199887E-02 6.725065593720E+00 -9.497697283189E+00 -2.283392514505E+00 1.355312638128E+00 6.178892364324E-01 -2.852891168772E-01 -4.057119459517E+02 -6.919120950590E+02 2.918912901656E+01 4.972154314664E+02 -8.172005658237E+02 1.128477993428E+01 1.290046074609E+00 2.332098993136E+00 1.542476461190E+00 -6.929323754812E+01 2.150314619840E+00 4.004081016502E+00 4.177589426361E+01 4.591764843674E+01 -5.474728743232E+00 8.017149885686E+01 -4.559015696520E+00 -1.350406227886E+00 -9.261232309585E+01 2.827835029659E+03
 -2.100138095972E-01 4.324516862656E-01 3.155174135546E+00 -1.371884718749E-01 6.050122848365E-01 4.047137170266E+00 -4.376888872264E-01 -9.347742052005E-01 -6.458752614684E+00 5.377202396526E+01 2.694854671971E+01 -7.715431421865E+01 1.887190391216E+01 1.012185214536E+01 -8.335922689539E+01 3.864273747276E-01 -1.274715355793E+00 -4.195741682681E-02 -1.136317285061E+00 1.408840180673E+00 7.968957615863E+00 -1.195666237748E+00 2.412532618797E+00 5.584629946149E-01 -2.999763905704E+00 4.154254242647E-01 6.247407665350E+00 -8.082539228892E+01 -9.750869054639E+01 2.030535081722E+02
 4.477527036901E-01 -1.307786683288E-01 1.705511540055E-01 -1.322347908314E+00 3.044684194998E+00 5.739150141817E-01 -5.662842456632E-01 -1.515263294522E-01 -5.730360128982E-02 9.524428359293E-01 -7.552321310830E-01 3.490156635360E-01 5.879617622170E-01 -1.716340996177E+00 1.384514399620E-01 -6.222808546109E-01 -8.318929576199E-01 -8.278697120510E-01 1.028186831960E-01 -1.735370313808E-01 -2.261070995597E-01 -2.712767949173E+00 3.410056758000E+00 7.985181745231E-02 2.465783088218E-01 1.275879484111E+00 2.492286559884E-01 -8.006935365950E-01 2.408747222848E+00 -5.886292951877E-01 2.810149450730E+03
 -2.974897319863E-01 5.363905778605E-02 5.148998145777E-01 7.063946570150E-01 -1.907080694354E+00 -2.905417495950E-01 2.526627094034E-01 1.453341645464E-02 2.410843171362E-02 -2.837118191282E-01 3.664988091338E-01 1.191373495355E-01 -2.285010803299E-01 6.626969580869E-01 -5.332148138748E-02 2.334039662785E-01 4.402199534737E-01 2.938524899229E-01 -6.329662300025E-02 2.434303698065E-01 9.078849117558E-02 1.040590168716E+00 -1.814008410923E+00 -2.524349767998E-01 -1.255787879479E-01 -4.479673899731E-01 -2.069488286358E-01 3.317268284898E-01 -9.942452608511E-01 1.206144079680E-01 3.327575974591E-01 2.800270250418E+03
 -1.907039109764E-01 -1.021406980959E-01 -3.046834382522E-01 -7.583880886566E-02 4.988035655913E-01 7.108383112018E-01 -2.034422904362E-01 -2.592864528981E-01 -3.924210460311E-01 3.519278692017E-01 -6.785281547178E-01 -1.103089471374E+00 7.348827360174E-02 -7.143609477576E-01 5.085220042924E-01 2.259795179790E-01 -5.368841823961E-01 5.561253145366E+00 1.406985613703E-01 2.446085200546E-01 3.837501068918E-01 -1.902919812276E-01 1.282921067369E-01 1.607393095648E+00 1.760234686760E-01 6.004814863507E-01 6.439932655991E-01 -1.079646732097E-01 5.514749237160E-01 -1.322271116076E+00 2.507488542756E+01 4.063519425422E+01 1.953333235378E+02
 -6.737754829446E-01 2.549863634416E-01 1.489079333632E-01 4.285302379094E+00 -3.790153323227E+00 -9.192366419711E-01 8.033162709406E-01 -2.514698196846E-01 1.065507278733E-01 -3.448632285435E-01 9.152429725603E-02 -6.512394603958E-01 -7.678835914063E-01 1.710076301254E+00 1.448581794104E-01 5.662824560217E-01 6.895760123599E-01 -2.763431593825E-03 -2.728587031761E-01 9.963962468201E-01 8.304416877242E-02 1.475522347857E+00 -4.804423564343E+00 -6.473514250432E-01 -3.795791853766E-01 -1.115869959306E+00 -7.758770498114E-01 8.639534992651E-01 -3.025915113833E+00 3.143080117231E-02 4.243729295577E+01 7.094871326348E+01 3.161343786132E+00 2.778131380427E+03
 -1.369539676925E+00 2.648405377941E-01 -1.469792684679E-01 4.692708859769E+00 -6.377286890314E+00 -7.194498221306E-01 7.480857929182E-01 -3.331690764096E-01 -7.126273162712E-02 -3.479848053774E-01 -4.533333747696E-02 -1.975547487584E-01 -1.129504091863E+00 2.179856442168E+00 -2.211728234798E-01 9.381983830212E-01 8.048444002484E-01 7.977421614075E-01 -1.386902831002E-01 1.559819655358E+00 1.638809263010E-01 3.477368945346E+00 -7.292857306551E+00 -7.783310212553E-01 -2.521041682258E-01 -1.425348142655E+00 4.786047762602E-02 1.328846973474E+00 -4.298702440880E+00 4.702950405332E-01 2.657305743236E-01 -2.579040367239E+00 6.198656964025E-01 2.774396830387E+02 2.854392668936E+03
 5.510932382907E-01 1.671832889151E-01 1.509961733234E+00 -4.398711698100E-01 -1.688708930569E-01 -6.689934825608E-01 5.004589979981E-02 2.197814144797E-01 -2.251644548137E+00 -1.281567085124E+00 1.485390483512E+00 -6.020931317208E+00 4.502118846432E-02 8.851019223360E-01 3.970508911724E+00 -1.445567046667E-01 1.730105934786E-01 -1.916124424985E-01 -2.131075238840E-01 -7.336562183504E-01 1.526831060168E+00 1.179283580835E+00 -3.072578851198E-01 5.404285790236E+00 3.493386492943E-02 -5.229741187871E-01 2.286848857729E+00 -2.091197805973E-01 4.781626177962E-01 -1.036256245016E+01 1.939644014267E+00 4.840488288932E-01 1.143724820006E+01 1.443918670145E+01 1.114769027135E+02 1.623015719357E+02
 -1.950632374053E+01 -3.462502545907E+01 -1.210511556935E+00 3.594704169920E+01 3.393481635549E+00 3.268665657963E+00 -2.124455117728E-01 2.243357974030E-01 -1.568004594459E-02 -1.009539262841E-01 2.631850393636E-01 5.161964579715E-03 5.717228329463E-01 -1.100790370470E+00 -1.825155333604E-01 -1.242587597215E+03 -4.364743778322E+02 -1.861297774889E+01 2.727658630302E-02 -1.075840759360E+00 -1.761448162023E-01 -1.596876168374E+00 4.274716559081E+00 1.430486360496E+00 1.072412361320E-01 6.917991079501E-01 -3.216379653209E-01 -5.649074803510E-01 2.382033617022E+00 2.650312807410E-01 -1.963820854255E+01 3.467991703652E+01 -2.624979660130E-01 9.914651675685E-01 1.878742182696E+00 -6.531060827225E-01 2.773482436078E+03
 3.508325548408E+01 6.041065180168E+01 2.553262980755E+00 -6.466783138894E+01 -3.718423998294E+00 -2.766776745704E+00 7.467941866855E-01 -1.257217322801E-01 1.015512178384E-01 -1.326428797136E-01 8.509779442386E-03 -3.795151620227E-02 -7.468597100214E-01 1.484361445565E+00 -5.885603146417E-02 -4.402207474377E+02 -7.260664336580E+02 -1.217887906051E+01 -1.520796141019E-01 8.050426362434E-01 1.827689003433E-01 1.066222423155E+00 -4.768965819271E+00 -5.253711359754E-02 -3.230420839158E-01 -1.091217803432E+00 -4.493093077892E-01 7.811865664845E-01 -2.722813118593E+00 5.687911913561E-01 -3.164690858623E+01 5.756031368755E+01 -2.650480979209E-01 -1.324414449940E+00 -1.657230263335E+00 -3.131323915770E-01 2.535578207655E+01 2.807010434207E+03
 5.008058067675E-01 1.070940958042E+00 9.993290735582E+00 -1.431547805075E+00 4.468431023500E-01 8.840762250792E+00 7.863105953238E-02 1.454050955393E-01 1.054928908991E-01 1.314291737424E-01 -2.514123621658E-01 -1.151779843551E-01 1.291672369267E-01 1.657051773793E-02 9.153180609281E-02 -1.987753470844E+01 -1.535029753681E+01 -8.317107499207E+01 -1.690741998770E-01 3.680919286192E-02 4.530014520736E+00 1.759265009959E-01 2.712562672235E-01 4.295539396599E+00 -1.739947174445E-01 -9.932452075288E-02 -4.424529090990E-01 -1.434210693931E-01 1.419594691716E-01 -4.402325825849E-02 -5.167154603204E-01 1.043021597462E+00 8.735712432015E+00 5.647945739414E-02 1.908062472817E-02 3.552171531039E-01 3.704235508809E+01 2.563988536943E+01 1.919873467632E+02
 -2.245520593065E+00 4.828278530617E-01 1.250707705293E-01 -8.314579554178E+00 -3.924307566443E+01 -2.342830051328E+00 2.879734748637E-01 -1.683110318152E+00 -2.683403275577E-01 3.031671074914E+00 -3.613858303545E+00 6.787774020299E-01 -1.319873647097E+00 -1.176843865324E-01 -2.404122177300E-02 1.163292752727E-01 -2.021343473739E+00 -1.815049173991E+00 5.462589037202E-03 4.032749197835E+00 -2.500822046047E-01 -8.421716228427E-01 -8.679227519115E+00 -2.753059405060E+00 1.133322219148E-01 6.426287278123E-01 7.306305753851E-01 9.241834025036E-01 -3.915529929840E+00 -6.477240257393E-01 3.962280469687E+01 -6.983141024971E+01 -2.068798923316E+00 -2.577475359147E+01 3.630346923776E+01 1.296797200420E+00 4.306614568299E+01 6.505877112938E+01 2.132055116421E+00 2.761404336300E+03
 -2.497185010197E+00 2.463220969792E-01 -4.188201810272E-01 4.148438180303E+01 4.821362614367E+01 1.230635473098E+00 1.264732818734E+00 -5.660186724732E-01 4.251515105498E-03 -5.180963561347E-02 -4.400050305691E-01 1.434397728326E-01 -1.961804486423E+00 3.679646465027E+00 -4.457091808048E-01 2.076933562584E+00 1.591026176078E+00 4.624975136139E-01 -5.561997444240E-03 2.665938752142E+00 -1.376004773933E-01 4.366229376940E+00 -1.174185182487E+01 -2.205630340742E+00 -5.239687566445E-01 -2.513559658147E+00 -3.741526782817E-01 1.937123847394E+00 -7.449387623583E+00 8.032983739720E-01 1.791377238162E+00 -9.163910636066E-01 -2.999731977491E-01 -4.510772660629E+01 6.832612381551E+01 2.206073085059E+00 3.472934767632E+00 -3.645428229049E+00 -2.424012684962E-01 -5.282869792583E+01 2.748543117326E+03
 -7.790133799092E-01 -1.429697713698E-01 -1.201825247075E+00 1.016757443583E+00 7.987459671785E-01 7.157090346021E+00 5.079669545605E-01 3.634445342657E-01 6.091080222673E+00 2.819008615200E+00 -1.780509909620E+00 1.439509795193E+01 3.857074799037E-01 -6.055192397726E-01 -8.873925034503E+00 -7.704868675702E-01 4.387525868028E-01 -1.167892781424E+01 8.331016899887E-02 6.744737780406E-01 -4.092930931557E+00 -4.563828262725E+00 1.910270286718E+00 -1.114988253878E+01 -1.059475649302E+00 -7.624339396216E-02 -8.253752983349E+00 -2.966224745501E-01 -1.734235528321E+00 2.427645556866E+01 -5.904917727456E-01 -9.577393519033E-01 6.321845150127E+00 -1.407462068137E+00 3.500692927520E+00 -4.128547410790E+00 2.008820701250E+00 2.098573963754E+00 9.099146501792E+00 -7.366391189431E+00 7.667342116594E+01 2.369809088588E+02
 -3.580889786869E-02 -8.046628338007E-02 4.595245188452E-02 -8.199019080979E-01 -2.810493072959E-01 2.067559742348E-02 -1.473939858529E-01 -5.231742863772E-03 -1.812582996197E-01 -1.045579192009E-01 5.492048685863E-02 -1.634704387627E-01 6.180077532088E-02 -1.754926887165E-01 1.293545255824E-01 4.515948173660E-02 1.448817674004E-02 3.009729846705E-01 8.796074086375E-02 -2.249101131598E-02 1.512345115053E-01 5.090664995364E-01 1.248423552885E-01 4.777578446957E-01 1.001036120310E-01 1.644827575983E-01 4.486100360420E-01 -1.896172127842E-02 2.587942594125E-01 -4.733292447780E-01 -1.232617095460E+03 4.351554805460E+02 -5.056664368051E+00 -5.052000081386E+02 -1.835688788743E+01 -3.713836964115E+00 -1.759966336011E-02 2.063208441738E-01 4.050849790874E-02 1.981162695768E-02 -8.592540428078E-02 -9.093214321981E-01 2.839973559583E+03
 1.085589447922E+00 -1.788132575121E-01 -4.906398172748E-02 -3.350065163915E+00 4.968699738927E+00 7.589973942392E-01 -7.631705407933E-01 2.233012780935E-01 -3.219290710355E-02 2.222588237545E-01 1.448055411472E-02 3.428023149772E-01 9.411120580685E-01 -1.830757466939E+00 1.732033078015E-01 -8.635030053273E-01 -6.626053205003E-01 -1.561647340869E+00 9.214747513237E-02 -1.173771551608E+00 -2.821304647400E-01 -2.848050365188E+00 5.973349362003E+00 2.230627407599E-01 2.997191622550E-01 1.231707105377E+00 3.110610768864E-01 -1.111180537935E+00 3.609857966638E+00 -6.157507893150E-01 4.360910575450E+02 -7.331930639881E+02 -9.246257583209E+00 -2.661820537561E+01 -1.537456080914E+03 -5.191604506992E+01 -1.649014172398E+00 1.101109127749E+00 -3.439942091153E-01 2.868985826233E+00 4.081596657614E+00 2.179193605311E-01 2.854229377923E+01 2.890794060368E+03
 -7.649737648527E-01 2.103547520689E-03 -1.404457267465E+00 9.248888908457E-01 2.037287800253E-01 -3.427603217683E-01 3.819014788975E-01 -3.820491706397E-02 3.701087156266E+00 2.129013598021E+00 -1.677350136373E+00 8.600997293127E+00 8.402863548277E-03 -7.753159451957E-01 -5.665145312683E+00 7.849737034006E-02 -6.491928113415E-01 -7.406308958491E-02 1.768021168213E-01 6.978239642449E-01 -2.271709396724E+00 -1.723886351557E+00 1.603190518521E-01 -8.739149750484E+00 -4.827828979199E-01 2.980673796866E-01 -4.869837539058E+00 2.283990584394E-01 -1.295371888747E+00 1.544721818981E+01 -2.499641611295E+00 -9.251538875602E+00 -8.681414294025E+01 -3.565118897581E+00 -4.898689019902E+01 -8.981211283844E+01 1.725178915490E-01 1.423040067104E-01 4.440750983563E+00 -7.418814580579E-01 5.056472073403E-01 1.532641183047E+01 2.779309464475E+01 7.985154810391E+01 2.033891036750E+02
 -8.147902197940E-01 -9.452796785638E-02 4.216652462718E-01 1.011935037690E+00 -4.162007292423E+00 -2.183615655887E+00 3.461110249300E-01 -1.101695508732E-01 1.084234357407E-01 -3.010514965985E-01 2.947117838121E-01 3.085701236653E-01 -5.874991572970E-01 1.214229729554E+00 -2.416060682102E-01 -1.905103147247E+01 3.541377708855E+01 8.812856090971E-01 1.377031171303E-01 7.454719548598E-01 2.583947410952E-01 2.130515790260E+00 -4.293870290493E+00 -8.779818558848E-01 -1.264163740221E-01 -8.350674274712E-01 -1.305319395567E-01 6.953652070711E-01 -2.370256861100E+00 8.234370635869E-01 -1.223771420716E+03 -4.241553697994E+02 -1.610028221504E+01 -1.163608762531E+00 -1.822856831459E+00 -1.889628130662E-01 -1.177107877653E+03 4.186256110994E+02 -1.336838360900E+01 -4.699136665933E+02 -1.390693628325E+01 -1.595135854040E+00 -1.930165151624E+01 -3.251661683874E+01 -9.114543817210E-02 2.755235622272E+03
 1.747366473618E+00 -6.418872122567E-01 -5.431994242938E-01 -7.129031376254E+00 8.969994693239E+00 5.537385636794E-01 -6.870217376969E-01 3.368840211655E-01 1.999281685875E-01 -1.161265344193E-02 1.269620495522E-02 -9.380223502475E-01 1.228563127754E+00 -2.509397346597E+00 3.331314125893E-01 -3.380608254827E+01 5.794443379772E+01 5.031677194537E-03 4.268158474328E-01 -1.906658191285E+00 1.447816027008E-01 -2.171994047634E+00 8.599250071358E+00 2.015001283524E+00 2.523302278523E-01 1.716707151166E+00 -3.889863442604E-01 -1.290138854346E+00 4.582294096636E+00 -2.777402883407E-02 -4.282223647172E+02 -7.116616343558E+02 -1.215748933158E+01 2.838735317585E+00 3.749698340735E+00 1.458386590512E+00 4.187695407901E+02 -7.135717333282E+02 -2.300178704178E-01 3.163612202887E+00 -1.490050593224E+03 -3.054308192551E+01 3.434412430144E+01 5.695074738786E+01 1.370409330125E+00 1.109199344027E+01 2.802245024354E+03
 1.066367279457E+00 -3.275850026308E-01 7.084507431159E+00 -1.869725896599E+00 5.648685838071E-01 -9.941934175104E+00 8.437270331432E-02 6.974859382536E-02 -3.719851317504E+00 -2.256154727624E+00 2.361669517416E+00 -1.047118828876E+01 1.239432071990E-01 8.788807020656E-01 6.794028248883E+00 -7.125735284377E-01 2.110346693046E+00 9.394328419582E+00 -1.263833368573E-01 -1.112644159776E+00 2.733200013719E+00 1.970247644646E+00 8.018718747809E-02 9.609335943420E+00 1.524668575834E-01 -3.201291358238E-01 3.457975432881E+00 -2.975617081950E-01 1.437618502386E+00 -1.749478912949E+01 -1.906065144920E+01 -1.403987972762E+01 -8.204521017707E+01 2.308407662955E+00 -9.467737396810E-01 3.628353046376E+00 -1.209836114621E+01 -1.298508247395E+00 -8.036529283858E+01 1.671070752129E-01 -2.451839886430E+01 -1.106046663737E+02 7.928682178534E-01 2.287211568301E+00 -9.087797464544E+00 3.168388814705E+01 4.071462866584E+01 2.156261103912E+02
 2.617980429544E+00 -5.426712340873E-01 -8.406938937615E-01 -1.163438604912E+01 1.314951861698E+01 2.435763517045E+00 -9.728758295805E-01 1.142812038259E+00 3.292667203533E-01 1.148038902921E-01 5.263790278460E-01 -7.550117887686E-01 1.971455096323E+00 -3.450587786983E+00 -8.456472369031E-03 -1.213943959457E+00 -1.217015601262E+00 3.338221069641E+00 4.342680036276E-01 -3.944464237985E+00 3.746857352723E-01 -4.080835210731E+00 1.374810012459E+01 3.880471343838E+00 2.863495584835E-01 1.858796197049E+00 -7.813278649264E-01 -2.120487146702E+00 7.311246543001E+00 9.334640914762E-01 -2.144298631292E+00 1.308858190464E+00 1.193333265658E+00 -1.499428304515E+03 -5.210527933104E+02 -2.481033840856E+01 -3.583190413313E+00 3.882692287488E+00 -1.883683805191E-01 -1.263081786274E+03 4.477541133989E+02 2.022501978959E+01 4.856962619158E+01 -6.719060832106E+00 1.756810208694E+00 4.204119946711E+01 -8.136854012258E+00 -4.113043019597E+00 3.056416249578E+03
 4.982651487974E-02 -2.498513142565E-01 -2.587571467068E-01 -7.887768856293E-01 2.170838233968E+00 8.915152378224E-01 -6.655129899839E-01 -4.554003380776E-01 -9.498202274354E-02 1.054033931890E+00 -1.341765813588E+00 9.167409265995E-01 3.453484140928E-01 -1.918617324359E+00 -2.806226851065E-01 -1.630842516660E-01 -8.040094057167E-01 -1.405312739304E-02 2.590566060835E-01 4.031078326385E-01 -1.250775930065E-01 -2.555223750144E+00 2.315237737037E+00 2.458069880494E-01 4.432069689982E-01 1.501896387121E+00 8.279987090522E-01 -5.404832922492E-01 2.048404004117E+00 2.216940183871E-01 -1.286345914057E+00 -4.017753961613E-02 -1.786179905341E-01 -5.373190015113E+02 -8.665163100730E+02 -4.160600731496E+01 1.093706750560E-01 6.026007221239E-01 -2.211324275391E-01 4.216150095023E+02 -7.206001869784E+02 -3.106285741325E+01 -8.590961141479E+01 1.840075122179E+00 -1.587286545230E-01 7.238963645658E+01 -1.381399243260E+00 -3.114165362200E+00 8.844287829749E+01 2.530817856853E+03
 4.149329280753E-01 -2.330826279308E-01 3.314251795818E-01 -8.900446414757E-01 2.557940587763E-01 5.315716323986E+00 -3.615864431399E-01 -9.177332950967E-02 -1.551329326975E+00 -1.038975505773E+00 6.358488704859E-01 -2.735938207223E+00 -7.330329652643E-02 1.451920429304E-01 1.984823381955E+00 1.131930235824E-01 6.640502742363E-01 -5.124097131598E-01 -3.828129167378E-03 -1.638258346631E-01 7.176025317662E-01 3.624309992661E-01 3.371876361043E-01 3.209549681091E+00 4.091778640816E-01 2.651728500867E-02 2.558422853125E+00 -3.888577015122E-02 8.851038203457E-01 -5.884114702531E+00 -6.266453020429E-01 1.795144676697E+00 -9.833581786974E+00 -2.902114211434E+01 -4.293855370667E+01 -6.852454528739E+01 -5.516766046181E-02 -5.131080466564E-01 4.432728975854E+00 2.566632616585E+01 -3.176939836916E+01 -8.687382416593E+01 -1.133989800870E+00 -3.330232313455E-01 4.748040350165E+00 -5.000472396907E-01 -1.736681431108E+00 1.594465262062E+01 2.083204465428E+00 1.420105812128E+02 1.614036812113E+02
 -3.762827029970E+00 -9.254093986594E-01 -4.757395420107E-01 -1.256357779462E+03 4.120596241146E+02 -7.163674040118E+00 1.638251494062E+00 -1.164961675237E+00 -3.550543654107E-01 -2.465010390160E+00 -1.695858733241E-01 -7.277821488441E-02 -2.334052792025E+00 1.423127489710E+00 -4.237126056909E-01 4.543487586410E+01 -1.028774069229E-01 1.956717549107E+00 1.896038667639E+00 2.228544164522E+00 3.729744095093E-03 1.088351043086E+01 2.903254747646E+01 -2.428443147262E-01 -4.462131422146E-01 1.043326785440E+00 2.320056628740E-01 4.822833702631E+00 -7.079682945049E+00 4.157165442172E-01 3.876549670785E+00 -3.503446637241E+00 4.017528486365E-01 -1.667181979428E+00 -6.984819042215E+00 -8.392079421230E-01 -1.755728119486E-01 -2.360317040941E+00 -7.819851405397E-02 -1.147907385858E+03 -3.949589629353E+02 -9.729018555556E+00 -1.163437488724E+00 5.998247707271E+00 -8.212768864649E-02 3.320301738353E+01 9.354458581814E+00 -5.358833014422E-01 -8.309702513422E+00 -2.921132904153E+01 -3.433210965480E-01 2.724633544700E+03
 1.276373841443E+01 -1.909343563872E+00 -2.001633002342E-01 3.859865241104E+02 -6.797806720419E+02 3.513141796058E+00 -6.831842485395E+00 6.445459670728E+00 3.145423026897E-01 -3.261141803663E+00 6.381760538030E+00 4.213923208175E+00 1.058759942949E+01 -1.402778085956E+01 7.220198059850E-01 6.001571597174E+01 -4.319424438410E+00 -5.038639460767E+00 8.811724062809E-01 -1.965332913814E+01 -1.577508233519E+00 -5.558510804630E+01 1.318626143119E+02 8.834702967188E+00 1.686711371134E+00 7.664209911290E+00 2.715414635792E+00 -1.214174237288E+01 3.691042183330E+01 -1.724974505908E+00 -8.899837632061E+00 7.399446706958E+00 -1.529885829074E+00 2.008043345730E+01 2.911897309760E+01 1.356468217676E-01 -1.981083340402E+01 1.771133529766E+01 -9.297912628688E-01 -3.288762690364E+02 -6.218068876406E+02 -1.220427695191E+01 -1.554762323986E-01 -2.289651627816E+01 2.985610922194E-01 -5.173212747969E+01 -3.992050026398E+01 -6.993356970491E+00 -4.115384078388E+01 5.407157389609E+01 3.375685598120E-01 2.241238703364E+01 2.547953714930E+03
 2.410574758675E-01 -1.730401238225E-02 4.505573079193E+00 6.880322848288E+00 8.833437168808E+00 -9.713604339259E+01 -2.070747758216E+00 -1.698606485166E+00 -8.451829892796E-01 6.666215832456E+00 -8.461596625502E+00 2.623975286823E+00 7.742384814186E-01 -4.591242704083E+00 1.131953183944E+00 -9.024825748680E-01 -1.053418171028E+01 8.240757823081E+00 9.881696204192E-01 4.866462152408E+00 4.062947155922E-01 -1.094307063224E+01 4.036876378498E+00 1.269131065685E+01 3.992265809570E-01 3.560821742835E+00 1.693172433820E+00 -3.143368516747E+00 1.004075443350E+00 -3.108893900037E+00 -2.586550499201E+00 2.561044043566E-01 4.831378921972E+00 6.146502139747E-01 -2.098114920786E-01 7.295152083271E+00 2.108351583374E+00 3.136410537649E+00 -8.969773060985E+00 -3.322724444244E+01 -2.615958708647E+01 -9.688997170019E+01 7.492195874878E-01 -1.114636278388E+00 -3.079082629212E+00 1.736505665758E-01 3.544814931561E+00 1.096511181802E+01 6.012463324223E+00 -3.722456680199E-03 1.073441968284E+01 9.705221406830E+01 8.694788539341E+01 3.348073059930E+02