#BIOSYM hessian 1
@Type: Hessian Update
@Units
 distance: 	A
 energy: 	Kcal/Mol
#header
@natom 71

#label
C1      C2      C3      C4      C5      C6      C7      C8      C9      C10     C11     C12     C13     C14     C15     C16     C17     C18     C19     C20     C21     C22     C23     C24     C25     C26     C27     C28     C29     C30     C31     C32     C33     C34     C35     C36     C37     C38     C39     C40     C41     C42     C43     C44     C45     C46     C47     C48     H49     H50     H51     H52     H53     H54     H55     H56     H57     H58     H59     H60     H61     H62     H63     H64     O65     H66     C67     O68     O69     H70     H71

#element
C  C  C  C  C  C  C  C  C  C  C  C  C  C  C  C  C  C  C  C  C  C  C  C  C  C  C  C  C  C  C  C  C  C  C  C  C  C  C  C  C  C  C  C  C  C  C  C  H  H  H  H  H  H  H  H  H  H  H  H  H  H  H  H  O  H  C  O  O  H  H 

#matrix
213
 2.787332498500E+03
 -2.579034733134E+01 2.809616834907E+03
 -1.974277804208E+01 -1.041400884879E+01 1.929338521051E+02
 4.237920629504E+01 6.769171192741E+01 -8.006535775755E-01 2.765380752993E+03
 2.995467272794E+00 1.375155529572E+00 3.692486989810E-02 -1.029788059228E+01 2.736558404064E+03
 -7.981598616587E-01 -1.246577454000E+00 8.659949406456E+00 -1.423076375021E+01 -2.170554881595E+01 1.885368637088E+02
 -4.894469306395E+01 1.061765843598E+01 3.083517299801E-01 5.190290857825E+00 6.855286381222E+00 -1.662809927236E+00 2.751380226006E+03
 -5.567618835981E+01 4.437143803542E+01 8.367420388590E-02 3.283786640825E+00 7.108859917774E+00 4.556657397231E-01 -6.837804953536E+00 2.712570364147E+03
 4.879954343515E-01 -3.245958740595E-01 8.964042314398E+00 1.022511544861E-03 -5.948753687287E-02 -7.884251506917E-02 -1.268070960115E+01 -3.878021117696E+00 1.865679089408E+02
 5.373766301356E+00 -9.131848403663E+01 3.044667006704E-01 -1.438066494104E+01 4.357297113547E+01 -2.448299283370E-01 -2.521956084420E+01 1.461464506408E+01 -2.437138631703E-01 2.720764979191E+03
 1.895420029626E+01 1.247553753297E+01 -4.850248340701E-02 -3.491498033198E+01 5.110450883284E+01 -7.172750139133E-01 3.629824250606E+01 3.781940921962E+01 -1.140939659796E-01 4.371200458410E+01 2.779415582302E+03
 -3.170416884841E-01 2.653674567103E-01 8.884752391209E+00 4.278474185218E-01 -5.444753901891E-01 8.742237631607E+00 -6.592651806012E-01 -3.088476599627E-01 9.540489226315E+00 -1.146838760858E+01 -1.408887110283E+01 1.929582790071E+02
 -2.723869274155E+01 -2.006762986427E+01 1.028030704175E-01 2.353954792645E+00 7.118052399494E+00 -4.153329437127E-01 -8.464145182575E+00 -1.280428412975E+02 4.466006095555E-01 -8.285944133187E+01 7.307722978516E+01 -3.820778029610E-01 2.495782268207E+03
 -3.135160312336E+01 -2.565711590560E+01 2.405203286406E-01 4.329598243262E+00 7.117611841824E+00 -1.676986474567E+00 -7.164388403176E+01 -4.413204564408E+01 3.722866328997E-01 -1.036722708407E+02 9.700841503077E+01 -7.064455154960E-01 -2.078066985943E+02 2.931869368800E+03
 -8.841845396141E-01 -1.347970075578E+00 -1.893619829971E-01 -2.607516981905E-01 2.899482079846E-01 1.794387623703E+00 -3.320146597269E+00 1.312527536734E+00 1.200734217528E+01 2.006610006470E-01 -1.572180426272E+00 1.121970906909E+01 -8.704137151916E+00 -1.468971385099E+01 1.506493319798E+02
 -1.215326479749E+03 4.522198398348E+02 7.242917590856E+00 -4.602433797674E+02 -1.609741014305E+01 3.330276192688E+00 6.752707412391E+00 4.015107990241E+00 -4.202693456725E-03 6.453019960990E+00 -3.054248164412E+00 6.569344679542E-04 6.757482905575E+00 7.870687319027E+00 6.109952506460E-01 2.806312570903E+03
 4.420962326608E+02 -7.490178312185E+02 4.164930742929E-02 -1.350273192873E+01 -1.423100538493E+03 1.065118242486E+01 -6.526624103045E+00 -3.375632130951E+00 5.355773308365E-02 -5.520080680141E+00 2.447046728362E+00 -1.696399485561E-01 -5.316414501673E+00 -7.158668771634E+00 -6.884737479884E-01 -4.307590106649E-01 2.768066923094E+03
 7.266455182342E+00 -1.941589703738E-01 -8.295690565448E+01 2.986839260831E+00 1.102660555906E+01 -7.988102166491E+01 -3.252044944772E-01 4.095365610890E-02 4.648685063966E+00 -1.781850516798E-01 -1.147944467239E-01 -8.858741375576E+00 -2.238761606191E-01 -4.216210512475E-01 1.983537163199E-01 -2.548728475884E+01 -2.012880222323E+01 1.909383188941E+02
 -1.200237127370E+03 -4.010333688910E+02 9.577003296735E+00 -4.440035981991E+00 -5.437578033242E+00 3.962708089335E-01 -1.182571969974E+03 4.761792024429E+02 4.897054088319E+00 -4.233272675087E+02 -4.012403468349E+01 2.165253230742E+00 4.327889257520E+01 4.640145644788E+01 5.292810899636E-01 -2.340070261383E+01 -2.908274369428E+01 4.153408990300E-01 2.772323653404E+03
 -4.140217332224E+02 -6.987981933704E+02 5.609910600808E+00 4.343417999155E-01 -1.024269104204E+00 -8.337182421201E-01 4.503187123527E+02 -7.274309936091E+02 -5.501994458666E-01 -5.618801372040E+00 -1.472673060634E+03 6.495363473521E+00 3.428887395458E+00 1.724899321710E+00 -1.481408933067E+00 3.502495238140E+01 5.897261071844E+01 -5.432792691152E-01 -1.896949543486E+01 2.778157421524E+03
 9.562614211029E+00 5.369454813201E+00 -8.169712917012E+01 -1.492251971728E-01 -2.074506255475E-02 -8.669590545340E+00 4.569536113304E+00 -5.170109436984E-01 -8.280755600043E+01 1.994071866196E+00 6.572583523225E+00 -8.241337130567E+01 -1.871997315813E-01 -5.039751044859E-01 -9.944924217582E+00 1.976648307688E-01 -2.423497631331E-02 8.706790749725E+00 -1.663975084889E+01 -1.183291070328E+01 1.922504546541E+02
 9.005923016120E+00 8.823351135485E+00 -1.826952265517E-01 -1.208764535957E+03 -4.221524600416E+02 1.084401026269E+01 2.223657511016E+01 9.508435708547E+00 -1.372254448523E-01 -1.167439116831E+03 4.371748714238E+02 2.746263266167E+00 1.791267444637E+01 2.515176028860E+01 2.824414113307E+00 3.403961406870E+01 2.061663448483E+00 1.338473382957E-01 2.973598343161E+01 6.213687593235E-01 2.073663557429E-01 2.724190126293E+03
 -9.388376349239E+00 -7.084869041941E+00 4.389958791098E-02 -4.192774638464E+02 -6.930018712772E+02 6.702423236461E+00 -1.991846686243E+01 -1.538942599759E+01 1.562629901744E-01 4.229192418886E+02 -7.274508569783E+02 2.182476603124E+00 -1.817132095256E+01 -2.108674620767E+01 -1.143294871672E+00 -6.376225991216E+01 -8.241344439039E-01 2.949267428428E-01 8.077238077521E+01 6.997122767009E-01 -3.716936481259E-01 4.454426935107E+00 2.733749320485E+03
 1.885209447281E-01 2.640573621226E-01 -8.948648685405E+00 9.543451613177E+00 7.350979875348E+00 -7.992633583670E+01 7.997588418119E-01 6.939081193882E-02 4.642247935706E+00 2.537656795328E+00 2.475938968883E+00 -8.118271171563E+01 5.589869374342E-01 9.465933684676E-01 4.175100759965E+00 2.666962031576E-01 2.334688493784E-01 8.714632124868E+00 -6.569829829233E-01 2.571250114835E-01 9.177757803468E+00 -1.375074973516E+01 -2.108185519605E+01 1.858787223227E+02
 3.109776942200E+01 2.436579607397E+01 -3.033441501000E-01 -6.088175636536E+00 -7.789774822563E+00 1.535638825726E+00 -1.196838684695E+03 -4.004238746594E+02 5.565610543893E+00 7.064690633837E+01 -4.190830411879E+01 3.234848667818E-01 -4.980035237157E+02 6.143541270515E+01 4.418931385731E+00 -6.283379366989E+00 6.454449976497E+00 2.923828640964E-01 -6.743540486375E+01 -4.183561625674E+01 7.202480204384E-01 -2.072329518537E+01 2.094474368208E+01 -6.577615722328E-01 2.545474786708E+03
 4.812573037977E+01 3.461471716781E+01 -3.656128172813E-01 -8.323161102951E+00 -1.352564015496E+01 7.892044063737E-01 -3.669369727354E+02 -6.880153980683E+02 3.192035079817E+00 1.128112942332E+02 -7.400811139631E+01 1.332999165949E-01 7.494535238047E+01 -1.699424506200E+03 8.139289536924E+00 -9.025932275556E+00 8.593612706223E+00 2.094284982281E-01 -3.932499340779E+01 5.026264785649E+01 2.084479835134E-01 -2.593668743290E+01 3.243599082931E+01 -5.863182539615E-01 9.218008441053E+01 2.846153345008E+03
 3.006146132193E-01 5.997249028799E-01 4.779821435234E+00 6.063536516671E-02 -5.955917024464E-02 -7.418914064572E-01 7.271161929474E+00 2.900576010607E+00 -7.679219113182E+01 -3.385476934285E-01 7.590683777670E-01 -1.048519020464E+01 2.163653643549E+00 8.386997168115E+00 -7.092751524000E+01 -2.341408791165E-01 3.082678029072E-01 -8.162692507716E-02 1.625683463704E-01 7.997327725808E-01 9.663356171635E+00 -1.278849544645E+00 4.322337349313E-01 1.782318576355E-01 -1.025538121616E+01 -1.139871092281E+01 1.513411937891E+02
 5.619817944027E+01 3.534463373585E+01 -1.945997429950E-01 -7.351397776450E+00 -1.803984341061E+01 -1.415836039363E+00 1.081105536312E+02 1.103980120682E+02 -4.735680465181E-01 -1.119095396670E+03 -5.269427874106E+02 7.055253319790E+00 -1.113948920141E+03 5.479866784714E+02 -8.479367506176E-01 -9.792889574663E+00 7.724247615414E+00 -1.030563280058E-01 -5.514827368425E+01 -1.706563721429E+01 -1.220300621029E-01 -4.099797465036E+01 4.238837327382E+00 2.090473938906E-01 -7.485845972370E+01 -2.152369947291E+02 2.103371536161E+00 2.568782686302E+03
 -4.291078799150E+01 -2.545862755006E+01 2.444525107386E-01 6.235420774802E+00 1.422671053548E+01 1.207257883942E+00 -7.931057869320E+01 -8.892786525360E+01 3.415368647989E-01 -5.359960587265E+02 -6.435141581408E+02 5.819617250123E+00 3.517942527260E+02 -8.425626537240E+02 4.456214244972E+00 6.669760844929E+00 -5.341124200304E+00 1.643331513411E-01 3.349082114862E+00 1.582980250239E+01 3.170651078101E-01 4.774088938746E+01 3.096117494833E+01 -5.669092606916E-01 1.753739665942E+02 1.669244845005E+02 -2.279872156071E+00 2.233552364946E+02 2.757704364319E+03
 3.689807121512E-01 5.361140652298E-01 4.585734188985E+00 3.430756730068E-02 -4.527390630787E-02 3.989890798562E+00 1.104064264322E+00 -2.468126751633E-01 -1.031819339616E+01 7.721141702872E+00 5.776524031595E+00 -8.568265245683E+01 2.910155290512E+00 3.073724208307E+00 -7.663564241736E+01 -1.885735237225E-01 2.472810681129E-01 -5.340685636585E-02 1.862145115404E-02 4.810705003738E-01 8.927181064870E+00 -1.039555422632E+00 2.520979139759E-01 9.499876041835E+00 -1.405485167262E+00 -4.759058283831E-01 1.097588257216E+01 -1.028460310230E+01 -1.699981438157E+01 1.864334254521E+02
 2.871344080890E+00 2.235030296145E+00 -2.571706495169E-02 -4.226380296043E-01 -6.727686716273E-01 1.663125111645E-01 6.245115461108E+00 4.428636025849E+00 -3.707050023435E-02 6.477281654463E+00 -3.661956939526E+00 4.980839141843E-02 5.532554753569E+00 6.634837501505E+00 3.380070443903E-01 -6.687927304336E-01 6.032857566529E-01 9.945226796649E-02 -4.284551782352E+00 -3.079005653340E-01 5.061906025673E-02 -2.036562684082E+00 1.908510833955E+00 -8.092116949244E-02 -6.474305789932E+00 -9.685499812995E+00 -1.311718882924E-01 -1.075534353398E+01 8.056139717464E+00 -1.220038059513E-01 2.760219565001E+03
 8.101652479439E-01 9.352868710962E-01 -1.267818571266E-02 -2.824229992971E-01 -5.050171770463E-02 1.358846963944E-01 2.158443468070E+00 5.338560643843E-01 -1.061775207196E-02 1.530419996166E+00 -1.972994999036E-01 3.726141106553E-02 1.884590789122E+00 2.687404278816E+00 2.609951529992E-01 -2.121521603625E-01 2.998574653082E-01 9.197622959304E-02 -8.286268316481E-01 1.919699265392E-01 3.407213928586E-02 -1.192281329658E+00 5.743140460384E-01 -4.622505108014E-02 -1.816235254221E+00 -1.939216902102E+00 -1.185439033132E-01 -1.060517919537E+00 1.032245202631E-01 -8.635139953849E-02 7.729216571325E+01 2.735636142299E+03
 3.407421040819E-01 4.426512136777E-01 5.361412759583E-02 3.301960728768E-02 -1.002971570659E-01 -5.090377310950E-01 1.088184143041E+00 -1.921086201904E-01 3.894075516399E-02 2.047247479954E-01 2.451961766027E-01 -9.967510174887E-02 4.867887819131E-01 1.201188387318E+00 -8.957809579848E-01 -1.363999770737E-01 2.791332007930E-01 4.632926736529E+00 -2.692730577954E-01 4.381423839604E-01 -1.262340891290E-01 -8.730265862241E-01 3.832324955197E-01 1.207922278060E-01 -9.419442696866E-01 -5.609679089800E-01 3.706041735577E-01 6.462520962569E-01 -6.585173428841E-01 2.420449872828E-01 -4.446282349207E+01 -3.118549257717E+01 1.900266938143E+02
 -9.826829556624E-02 -6.205578559821E-02 8.839291163288E-03 1.168437180644E-01 1.451139439915E-03 -6.850955402989E-02 -1.185111598448E-01 -2.684269229445E-01 5.556631326385E-03 -2.820255767271E-01 2.269888225132E-01 -8.982163154492E-03 -4.047868743723E-01 -2.401162857133E-01 -1.077052024927E-01 -4.299036342744E-02 1.212927872384E-03 -2.703014979878E-03 1.259706220874E-01 1.379278257489E-01 -2.233648092269E-02 -2.811931831852E-02 -6.160263043734E-02 1.331404369588E-02 1.242686353826E-01 3.627845183126E-01 3.599018604919E-02 8.033613128989E-01 -5.567904148406E-01 2.304992311452E-02 3.612488645718E+01 6.187315163571E+01 -1.718980478187E+00 2.830138738433E+03
 1.846814065932E+00 1.349136925244E+00 -1.784346047228E-02 -3.114911744781E-01 -4.984762216328E-01 7.435241739796E-02 3.843213639957E+00 3.190834140905E+00 -2.220150102943E-02 4.292004495722E+00 -2.738685268691E+00 1.883438978415E-02 3.628118739754E+00 4.028679646208E+00 1.401909038433E-01 -3.614318579951E-01 3.485432409987E-01 1.552708342844E-02 -2.858187331275E+00 -3.725760929629E-01 2.852107629506E-02 -1.053697120442E+00 1.232474712626E+00 -3.765288956458E-02 -4.127626608077E+00 -6.560662770437E+00 -4.033420187373E-02 -7.943316068295E+00 6.168167357189E+00 -4.934872749129E-02 -1.932594297083E+00 -2.785822956999E+00 2.899026369809E-01 3.083144264531E+02 2.770211433570E+03
 -5.728326230836E-01 -7.577995868364E-01 -1.441223242086E-01 -3.698363603473E-01 2.232409321666E-01 1.326585521060E+00 -1.990855721187E+00 6.522026590049E-01 -1.034416924499E-01 -3.509914015067E-02 -6.847861248378E-01 2.549402176569E-01 -2.909789573343E-01 -1.920049981935E+00 2.321949025039E+00 4.684264849949E-01 -4.034932625865E-01 1.444493747617E-01 5.531771697037E-01 -1.031983668804E+00 3.313680226630E-01 1.739193144653E+00 -7.507197725526E-01 -3.110568720968E-01 1.885847422759E+00 8.842703991791E-01 -9.568151161365E-01 -2.041607323384E+00 1.572734901106E+00 -6.264062029542E-01 -3.300005046096E-01 -9.578820108889E-01 9.341267758029E+00 -4.521058473713E+01 -5.736191896418E+01 1.502906322726E+02
 -1.974494704736E+01 -3.334266161438E+01 5.904761069023E-01 3.779162346038E+01 -5.969642735817E-01 -2.454023727174E-01 1.254037816945E+00 2.921839120012E-01 -5.610119987601E-03 9.979167149680E-01 -7.243036393333E-02 3.642560594654E-02 4.061651127468E-01 1.189934086144E+00 1.374141861581E-01 -1.247613404563E+03 -4.294735136226E+02 1.545820393911E+01 -8.656747982447E-01 2.697669358135E-01 4.854164772880E-02 -6.158361784960E-01 3.009570818114E-01 2.026136609973E-02 -1.373892368603E+00 -1.405347930413E+00 -8.199979378341E-02 -3.916170046074E-01 1.145317534693E-01 -6.034333530254E-02 -1.999763136027E+01 3.528197197258E+01 -7.810684768431E-02 2.200014972903E-02 -5.601405759306E-02 3.993089947274E-02 2.764548568100E+03
 3.536389304751E+01 5.972381797154E+01 -7.844523145132E-01 -6.774453337348E+01 1.260153122356E+00 8.448042025368E-01 -1.767865516846E+00 -1.413439464836E+00 7.388921222440E-03 -2.010531992620E+00 1.242234716277E+00 3.766144871440E-04 -9.776037376506E-01 -1.432611544198E+00 8.272888330032E-02 -4.348538457253E+02 -7.155045237156E+02 9.217644640698E+00 1.571928292265E+00 7.820819671771E-03 5.628815653581E-02 4.282370439946E-01 -5.243348270529E-01 3.792922086904E-02 2.044692001106E+00 3.111554062596E+00 -2.555216036813E-02 3.280222042292E+00 -2.843919413950E+00 -4.455909576003E-03 -3.329041875539E+01 5.948365069843E+01 -2.681187193698E-01 -2.451470168836E-02 1.051120924144E-01 8.726975119134E-02 2.763743697754E+01 2.783442787261E+03
 -5.136523835819E-01 -8.251968571466E-01 9.586189237728E+00 1.761278771626E-01 2.266784242145E-01 9.410982974335E+00 -1.638386090315E+00 1.390279985586E-01 -4.709975141788E-02 -4.856949937017E-01 -2.595431707185E-01 1.224654966950E-01 -8.792364261849E-01 -1.862075969571E+00 1.100528162385E+00 1.581845819843E+01 8.935532764332E+00 -8.242565481747E+01 4.881428862037E-01 -5.276890101870E-01 4.752689767587E+00 1.285051593168E+00 -5.342967638191E-01 4.308933107023E+00 1.415274606558E+00 9.809032669446E-01 -4.548172183222E-01 -6.055077357624E-01 7.589841543429E-01 -2.962546210490E-01 1.020390610447E+00 -1.092646576949E+00 8.989364040313E+00 -1.062345342931E-02 7.009725700769E-02 8.101779703285E-01 -2.903130529506E+01 -1.842408083364E+01 1.901974939402E+02
 -2.293046650850E+00 -2.225322625565E+00 6.004804735702E-02 -1.835578816510E+01 -3.191827916355E+01 1.250064124179E-01 -5.330653018316E+00 -3.006179541790E+00 5.049836166155E-02 -5.009932060011E+00 2.226086881067E+00 -9.883904214622E-02 -5.472793629159E+00 -6.461685709701E+00 -8.367242855339E-01 3.691487723353E-01 -5.795860938707E-01 -1.469117022932E-01 2.805186537946E+00 1.929831830796E-01 -1.277923123586E-01 2.197772482984E+00 -1.548503695700E+00 1.650761234445E-01 4.883084198333E+00 6.860584783313E+00 3.380438576167E-01 7.284411472362E+00 -4.429313192300E+00 2.452970092735E-01 4.025281329851E+01 -7.051813105247E+01 7.396155346909E-01 -2.293023459190E+01 4.185364837851E+01 -1.071374616880E+00 3.861510889365E+01 6.414655606729E+01 -1.648729009559E+00 2.777401359319E+03
 -6.160051658487E-01 -4.542587723068E-01 1.301750327473E-02 3.487303461312E+01 5.839159304140E+01 -1.004407730190E+00 -1.220422051364E+00 -1.137809782845E+00 1.249997976061E-02 -1.456126597593E+00 1.001702263849E+00 -9.681681838803E-03 -1.389743482068E+00 -1.349819619708E+00 -1.455123699472E-01 1.452405075768E-01 -7.706683147811E-02 -1.257232632371E-01 8.936232162672E-01 2.479581873141E-01 -3.142500370358E-02 2.780474163687E-01 -3.989099597012E-01 9.129054703370E-02 1.241575153751E+00 2.152995741334E+00 4.823332180698E-02 2.902935110882E+00 -2.283667251709E+00 4.142554729972E-02 -4.371346320374E-01 1.060853203985E+00 2.100438598420E-01 -4.127267747206E+01 7.466216124987E+01 -9.940472731008E-01 -5.062334357413E-01 -9.748879404393E-01 1.347757820405E-01 6.412180109785E+00 2.718854402079E+03
 7.254414239258E-01 8.692143464210E-01 1.365512882544E-01 8.813952114274E-02 -6.921275248496E-01 7.326993059080E+00 2.274012844294E+00 -4.650010739143E-01 9.800653885502E-02 3.290354416002E-01 4.985677356699E-01 -2.434900150737E-01 6.146689830415E-01 2.244484911120E+00 -2.224479463149E+00 -5.939088149326E-01 3.536714211141E-01 -8.952477086149E+00 -7.109969956477E-01 1.012071344913E+00 -3.166790208204E-01 -1.766194812658E+00 8.911035086916E-01 4.734956926836E+00 -2.133581681926E+00 -1.257289490244E+00 9.171513262137E-01 1.556264672544E+00 -1.234049178735E+00 5.994887416220E-01 -6.611133602117E-01 9.151837778065E-01 9.437176595796E+00 1.423740491645E+00 -2.067378586072E+00 9.730485101827E+00 -4.724531749139E-01 -8.654391456286E-01 8.080725158873E+00 -2.103299988263E+01 -3.543375955585E+01 1.865187926372E+02
 -2.851687343368E+00 -2.326004175601E+00 3.698223248802E-02 4.733364316253E-01 6.536384215563E-01 -2.622090640490E-01 -6.333705499111E+00 -4.271821339662E+00 4.275033027414E-02 -6.414993667735E+00 3.480731413795E+00 -7.100004795637E-02 -5.588111334288E+00 -6.809797996661E+00 -5.080605287018E-01 6.734513437835E-01 -6.353453224489E-01 -4.998286398275E-02 4.154027807446E+00 2.487152693944E-01 -7.051787280163E-02 2.162436457315E+00 -1.886809572527E+00 1.043903884602E-01 6.430817447265E+00 9.472757128095E+00 2.083524687830E-01 1.025522062973E+01 -7.503511504220E+00 1.738709326883E-01 -1.120623552839E+03 4.016195924865E+02 1.461227100138E+01 -4.839656570181E+02 -3.037182128536E+01 7.366436376366E+00 1.177280662095E-01 -1.601753160862E-01 -1.683629873815E-01 -5.114298228117E-01 -6.701240721681E-02 2.168458341252E-01 2.978097943452E+03
 -8.543122649811E-01 -8.056885787534E-01 1.725588269961E-02 1.876431280071E-01 1.070233019313E-01 -1.697157608894E-01 -2.060347789144E+00 -9.506175456988E-01 1.585517075781E-02 -1.817819828670E+00 6.472062706154E-01 -4.481518106343E-02 -1.760826269547E+00 -2.365025104431E+00 -3.312404748596E-01 2.237893191217E-01 -2.349271276412E-01 -2.720022231446E-02 1.109316483860E+00 -3.969096407303E-02 -4.381710974581E-02 8.939532728416E-01 -5.588519919284E-01 6.047166955951E-02 1.926485767285E+00 2.479083087066E+00 1.459830858424E-01 2.147681053984E+00 -1.250297274005E+00 1.073379806430E-01 3.937172144360E+02 -6.884279491377E+02 1.228597313197E+00 -2.554948274399E+01 -1.430265965473E+03 2.780376445366E+01 6.539949348670E-02 -4.137121662206E-02 -7.495736888886E-02 -1.453391820714E-01 -6.409787885290E-02 6.142308197209E-02 1.696730887599E+02 2.806092155058E+03
 -2.043113204707E+00 -2.182290880054E+00 -3.004244508459E-04 6.330591002953E-01 3.404938125468E-01 1.048983470446E-01 -5.114487770705E+00 -1.934008338623E+00 5.355894452406E-03 -3.894816646779E+00 1.306667402601E+00 1.952510188570E-02 -4.683586660364E+00 -6.171505928229E+00 1.836508886357E-01 5.080748994075E-01 -7.257222323018E-01 5.660818049257E-04 2.205062369034E+00 -3.589165493558E-01 2.021621523814E-02 2.608741174446E+00 -1.522914791008E+00 -1.166778545709E-02 4.464233239355E+00 5.448692516780E+00 -7.966050066780E-02 4.445463883816E+00 -2.222919807365E+00 -3.311885909611E-02 1.515908584305E+01 1.372041486615E+00 -7.933135201761E+01 7.689805390425E+00 2.813204448694E+01 -7.253449095161E+01 2.933336341764E-01 -8.246803513831E-02 4.290224497611E+00 -6.042249797269E-01 -2.365390990631E-01 -9.954395005268E+00 -5.918540903701E+01 -5.469793934164E+01 1.841026793908E+02
 -1.663492710908E+00 -1.253889919668E+00 7.615535503595E-02 2.148435948306E-01 4.399152853463E-01 -2.869955547809E-01 -3.633652789908E+00 -2.596790084490E+00 3.319562987950E-02 -3.881859842766E+00 2.121829738116E+00 -6.409764270179E-02 -3.022863904783E+00 -3.770112751452E+00 -4.706866085982E-01 -1.877911486166E+01 3.396094508562E+01 2.648072577487E-02 2.576128582464E+00 1.334425535752E-01 -5.700725394167E-02 1.135799452414E+00 -1.049483703717E+00 8.220953396994E-02 3.807212460204E+00 5.691870583165E+00 2.018372421776E-01 6.176970748809E+00 -4.584825628653E+00 1.560261987101E-01 -1.290283875267E+03 -4.526575939627E+02 2.389569007471E+01 -5.063076230865E-02 2.450775991046E-01 -4.498579447974E-01 -1.160012251361E+03 4.221073541466E+02 9.332805789998E+00 -4.616881639752E+02 -1.575009745289E+01 4.782663737774E+00 -1.925432094065E+01 -3.260989482983E+01 3.570624790655E-01 2.797044309043E+03
 3.581510944191E-01 2.800874763718E-01 1.930515549816E-02 5.929323545375E-02 -1.465529545009E-01 -4.789617198158E-02 7.456537206034E-01 6.983382448766E-01 -1.207214093820E-02 8.941221930497E-01 -6.521076877284E-01 8.133518219497E-03 6.759038065325E-01 7.131204267052E-01 1.105376617951E-01 -3.239808932615E+01 5.772185537186E+01 4.106880911440E-02 -5.406377056944E-01 -9.142879548167E-02 1.555268080409E-02 -1.470608356478E-01 2.175119073801E-01 -2.267178988803E-02 -7.318282240335E-01 -1.301545484855E+00 -4.469776896994E-02 -1.654927488709E+00 1.367685635698E+00 -3.680118040344E-02 -4.509781301363E+02 -7.357379292741E+02 1.472969091835E+01 2.539494087667E-02 -1.499313823057E-02 -1.970267562982E-02 4.186142382441E+02 -7.097862297278E+02 1.034368294249E+00 -8.667456530647E+00 -1.446940471812E+03 1.903301108435E+01 3.371463578746E+01 5.773974271258E+01 -9.986040618403E-01 4.526916812503E+01 2.776571279590E+03
 7.194408769247E-01 9.733645563152E-01 4.517159499693E+00 -3.243169613265E-01 -1.606104802095E-01 -9.098526470515E+00 1.963331553169E+00 1.129557130143E-01 2.027759377030E-02 9.197885915305E-01 9.680959387918E-02 -6.422505277186E-02 1.670855209758E+00 2.518615709348E+00 -5.509428039116E-01 3.117430037850E-01 -3.625156375035E-01 8.374170894130E+00 -4.500341084178E-01 4.205824504967E-01 -7.430619055503E-02 -1.358891796353E+00 6.027562216193E-01 7.585164744289E-02 -1.509581453914E+00 -1.273783515351E+00 2.300837823702E-01 -9.469340548287E-02 -6.007107898264E-01 1.479159076837E-01 2.328729863820E+01 1.452909874056E+01 -8.421441378913E+01 -1.610093797755E-01 -3.091142861239E-01 -1.034265525586E+01 9.443127582161E+00 1.007820158230E+00 -7.962341937862E+01 4.660212918597E+00 1.928259440307E+01 -8.021136146087E+01 3.930652123437E-01 2.007466183567E-01 7.696469660756E+00 -3.715215014286E+01 -3.460530884738E+01 1.908095804834E+02
 2.413600626169E-01 1.279408450554E-01 -8.305231007290E-03 -2.982564163513E-03 -4.209369421961E-02 1.294930930962E-01 4.626252948098E-01 4.514114858286E-01 -7.036136501445E-03 6.298952095507E-01 -3.601605058632E-01 2.474859641419E-02 3.912778679686E-01 4.440911906872E-01 1.862587693667E-01 -5.470286676947E-02 1.069871821267E-02 1.191435824958E-02 -4.634434056768E-01 -1.031083616438E-01 2.645266843743E-02 -6.445258383361E-02 1.327131958730E-01 -3.266354013344E-02 -5.703180995276E-01 -9.189660148211E-01 -7.876547284847E-02 -1.109930900026E+00 8.862531344119E-01 -5.577934173093E-02 -4.942305382396E-02 -3.042976940227E-02 -1.829116544691E-01 -1.581731569239E+03 -5.435872552493E+02 3.237420465918E+01 5.172442686471E-03 2.687266139649E-03 8.023539368929E-02 -1.222030981623E+03 4.225398401839E+02 4.258839989081E+00 4.646570466798E+01 -1.973239721996E+00 -4.469084494298E-01 3.757027914075E+01 -5.363136263185E-01 -2.866805655719E-01 3.101313385992E+03
 -1.091998823049E+00 -8.735406164173E-01 8.589196424006E-04 1.207538542152E-01 2.882403078405E-01 9.016119593752E-02 -2.441481366951E+00 -1.614664654662E+00 7.128111814060E-03 -2.392631158926E+00 1.347878095538E+00 -1.018571040003E-03 -2.006391853771E+00 -2.533443630069E+00 3.971934159028E-02 2.818255664818E-01 -2.585006810281E-01 -5.476069897254E-03 1.619053831911E+00 3.050914744511E-02 7.061090380369E-03 8.510238812593E-01 -7.475199664314E-01 7.369056860387E-03 2.524553280945E+00 3.668571362768E+00 -1.781376844144E-02 3.857801860210E+00 -2.931925491177E+00 2.360002709484E-03 2.247562068708E-01 7.930346702248E-02 -2.512663173321E-01 -5.628187150049E+02 -8.824401290333E+02 2.476432873388E+01 3.078618684203E-02 -4.587283648304E-02 3.651935820897E-02 4.100737715573E+02 -7.157205658006E+02 7.156482795865E+00 -8.430118267698E+01 3.568213638646E+00 1.105970523170E+00 6.714037700425E+01 -9.437832750137E-01 -3.367793342979E-01 1.281947264498E+02 2.543010439975E+03
 -2.831212962180E-01 -4.005620421554E-01 -1.006576389816E-01 -2.469456680544E-01 2.050335562644E-01 5.506627763837E+00 -1.095051850543E+00 5.635684686550E-01 -7.299789557258E-02 1.994917290565E-01 -5.498934254389E-01 1.777302674110E-01 5.244715502691E-02 -9.929961469206E-01 1.614385229162E+00 2.969325853035E-01 -2.519258119469E-01 1.011366715358E-01 2.574544284744E-01 -6.984661894068E-01 2.301854900676E-01 1.063493179161E+00 -4.398306832610E-01 -2.168421219909E-01 1.057522570094E+00 3.053491562151E-01 -6.653926954039E-01 -1.666071233056E+00 1.219271760775E+00 -4.365613564952E-01 -9.826825163003E-02 -7.515628632456E-02 -1.026151925784E+01 3.243538837032E+01 2.439483074371E+01 -7.075345969500E+01 6.864065793064E-02 1.407496778162E-01 4.824535361274E+00 4.422187845788E+00 6.850184624944E+00 -7.583137097762E+01 1.003190448183E+00 1.266393037456E-02 8.676397947028E+00 -1.345432784045E+00 1.944010793650E-01 9.892676541346E+00 -4.071553949945E+01 -5.152701423562E+01 1.528912943817E+02
 2.181727725589E+00 1.934394193274E+00 -2.255013102097E-02 -1.216120423580E+03 4.397502118161E+02 2.765335240873E+00 4.993774712035E+00 3.016343362549E+00 -3.925768967802E-02 4.880936835322E+00 -2.229431118361E+00 1.160022088262E-01 4.702048378776E+00 5.767340038789E+00 6.511960453501E-01 3.904518852646E+01 1.950013015466E-02 -9.339190221903E-02 -3.039876409816E+00 -1.377092598516E-01 9.185771148115E-02 -2.140466892152E+01 3.635932839082E+01 -2.990609330895E-01 -4.912464719668E+00 -6.940540335571E+00 -2.690014283329E-01 -7.217168620230E+00 4.683434100158E+00 -1.987669282081E-01 -4.909200582583E-01 -1.894177482922E-01 -1.452655178084E-01 -6.161231841440E-03 -2.728285815536E-01 4.899556233371E-01 -9.267131904666E-02 1.629558640401E-01 2.274224551859E-01 -1.209319491767E+03 -4.101783518213E+02 1.329083683945E+01 4.794784473477E-01 1.719822038953E-01 4.721616135348E-01 3.705905007729E+01 -6.073941021438E-01 -4.517337033003E-01 -1.807424228436E+01 -3.214108856272E+01 8.934102087724E-01 2.793212665927E+03
 1.724415894277E+00 1.751800699965E+00 -2.729923866423E-02 4.451380795635E+02 -7.324723232931E+02 4.777323441272E+00 4.047771750138E+00 2.218699133958E+00 -4.952750701922E-02 3.757982097463E+00 -1.697068951098E+00 1.380497414042E-01 4.468637389345E+00 5.039507852077E+00 8.733530924530E-01 6.587550956522E+01 -4.520308180697E-01 -1.805652541947E-01 -1.916299893111E+00 -2.494322500963E-01 1.428798323818E-01 -3.428127168059E+01 5.954737799256E+01 -4.481163359473E-01 -3.421602675154E+00 -4.912064754320E+00 -3.518403869527E-01 -5.372474329870E+00 3.288787284852E+00 -2.584284691610E-01 -4.006694185311E-01 -1.681943577934E-01 -2.175468178256E-01 -2.974389883120E-02 -2.029582861598E-01 7.381366986593E-01 -2.431281345934E-01 1.856263110584E-01 2.082792414038E-01 -4.092724265396E+02 -6.933936323214E+02 1.047922550292E+01 3.706531100758E-01 1.495103235023E-01 3.621673118057E-01 -6.637440227882E+01 9.842207093633E-01 3.361316710533E-01 3.258808837144E+01 5.865822369425E+01 -4.322771855255E-01 2.543563592941E+01 2.820549599013E+03
 -6.864025117153E-03 4.896280167203E-03 4.566845395890E+00 2.335917472661E+00 4.247867259711E+00 -8.176851840312E+01 -8.027181624892E-02 -5.471526505740E-02 1.064518961104E-02 -8.709639113428E-02 7.045248186136E-02 4.451522619661E+00 -2.074495068448E-01 -1.781503021370E-01 -2.572287315189E-01 -6.596446860042E-01 6.511235331687E-02 8.969739830204E+00 -1.280608094026E-02 2.467142140025E-02 -3.624888018907E-02 4.070387103408E-01 -5.695758293979E-01 9.039207770964E+00 1.149537161047E-02 6.036950750857E-02 1.080917408715E-01 1.542812496939E-01 1.061353137080E-02 7.377480426882E-02 1.105503932136E-01 8.896292468095E-02 4.695802795388E+00 5.187865910844E-02 1.409375027702E-01 5.597844691317E+00 -1.190341479536E-01 -1.423708450405E-01 -8.901273589523E+00 1.376108684140E+01 1.103254404054E+01 -8.345982863880E+01 8.814833692345E-03 -2.724902525913E-02 -4.369346273510E-02 7.129706683061E-01 1.195881418606E-01 7.961270753403E+00 -1.863287875497E-01 -3.954550275029E-01 9.153777361987E+00 -1.902883314752E+01 -3.403289739896E+01 1.893215869042E+02