#BIOSYM hessian 1
@Type: Hessian Update
@Units
 distance: 	A
 energy: 	Kcal/Mol
#header
@natom 67

#label
C1      C2      C3      C4      C5      C6      C7      C8      C9      C10     C11     C12     C13     C14     C15     C16     C17     C18     C19     C20     C21     C22     C23     H24     C25     C26     C27     C28     C29     C30     C31     C32     C33     C34     C35     C36     C37     C38     C39     C40     C41     C42     C43     C44     C45     C46     C47     C48     C49     H50     H51     H52     H53     H54     H55     H56     H57     H58     H59     H60     H61     O62     H63     H64     H65     H66     H67

#element
C  C  C  C  C  C  C  C  C  C  C  C  C  C  C  C  C  C  C  C  C  C  C  H  C  C  C  C  C  C  C  C  C  C  C  C  C  C  C  C  C  C  C  C  C  C  C  C  C  H  H  H  H  H  H  H  H  H  H  H  H  O  H  H  H  H  H 

#matrix
201
 2.813135304376E+03
 -1.076587977938E+01 2.481615054294E+03
 6.749702842103E+00 -1.033338695880E+01 1.821037178778E+02
 4.298895270627E+01 6.960729990385E+01 -4.376099138333E-01 2.954342440160E+03
 -1.649392638883E+00 2.459643707453E-01 -1.194761141050E-02 -4.848785198263E+01 2.908069321475E+03
 -1.265009687702E-01 4.323532658012E-01 9.783230913012E+00 8.889916113430E+00 -2.051332289444E+01 1.971521179240E+02
 -2.389710747756E+01 3.968352502566E+01 -2.857609590201E-01 -1.916884333815E-01 3.090338351296E+00 -1.535824842030E-01 2.748798735625E+03
 -3.191356742019E+01 6.373013358890E+01 -1.708407566017E-01 3.704432417829E-01 -1.954046978940E+00 -6.150647783416E-02 8.238996361058E+00 2.523228303415E+03
 2.716011130601E-01 -2.658372240488E-01 7.420500348069E+00 7.441645554238E-02 1.205534165250E-01 -1.615261240589E-01 8.035514970945E+00 -8.008083656175E+00 1.671772160790E+02
 3.919981773725E+01 -7.064708853799E+01 6.172460558449E-01 -1.866272932969E+01 3.532710498278E+01 -3.462736467356E-01 4.223909718570E+01 7.163511380964E+01 -4.040756440084E-01 2.876668973068E+03
 -1.350010340750E+00 1.481229802631E+00 4.586074080360E-02 -3.485265964980E+01 6.166848264284E+01 -4.134572461651E-01 4.529540364206E+00 -1.097876958472E+00 1.244576815092E-01 -2.680810983166E+00 2.872105945410E+03
 8.816163490748E-02 -1.470523453326E-01 1.012861878349E+01 1.074947384600E-01 -3.169343999621E-01 9.889639660817E+00 -6.852931978187E-04 2.302196693033E-01 1.021667774732E+01 9.880653899321E+00 -1.646473432754E+01 1.921121727213E+02
 -3.217278272136E+00 -1.224899702663E+01 -2.253909018940E-02 1.771834221045E+00 -8.382318030233E+00 3.562608810136E-01 5.370768251425E+01 -7.582038247400E+01 7.055831036540E-01 -2.701362466169E+01 2.703532343657E+01 -3.065943911271E-01 2.946115670168E+03
 -1.683127706454E+00 -1.279767294897E+01 -5.363141364324E-03 -1.100796846893E+00 3.331397559405E-01 3.619192295162E-01 4.716890046865E+00 -9.046338518883E-01 -3.268196733107E-01 -3.493685071187E+01 5.923191605002E+01 -3.827706190078E-01 -4.810546379075E+01 2.964344865450E+03
 -3.563698797269E-01 6.356293806144E-02 -5.952101570137E-01 -1.891001899907E-01 -2.281525915840E-01 2.069062074245E-01 1.006518129706E-01 4.439721782410E-01 7.048710574461E+00 -5.662553163331E-02 -9.311280549225E-01 7.490254222795E+00 1.125995250120E+01 -1.529864049890E+01 1.598995365812E+02
 -1.232507970935E+03 4.589482132431E+02 -4.621075165930E+00 -5.002097160367E+02 -1.568881979621E+01 -1.025776871764E+00 -1.392689303017E+00 4.156765374294E-01 -9.282871341505E-02 -1.136441027536E-01 1.894302678089E+00 6.783825179370E-02 5.191478511409E+00 3.225655316341E+00 1.296146858287E-01 2.984937860483E+03
 4.674306623639E+02 -7.614334546656E+02 4.461317798271E+00 -9.817945387954E+00 -1.512992541270E+03 9.759791096231E+00 -4.330396773619E-01 1.925896748950E+00 -4.537099545441E-02 1.892494522012E+00 -2.794736442751E-01 -8.991648021489E-02 4.903761895171E+00 -1.168591548837E+00 1.039957076398E-01 3.783406489638E+01 2.917147533506E+03
 -5.011605904707E+00 4.639048808310E+00 -8.269026274556E+01 -1.074316032990E+00 9.192623065739E+00 -8.686441466193E+01 -9.160625252329E-02 -2.406049453458E-03 4.842919207323E+00 2.751501866995E-02 3.454864533961E-02 -9.648782909141E+00 2.332735842388E-01 2.721498391708E-01 1.622105802379E-01 5.694520453071E+00 -1.633998553966E+01 1.982844366379E+02
 -1.268715350673E+03 -4.354876801531E+02 -1.265213104225E+00 -6.572348471031E-01 -4.493600167446E-01 -1.208604598490E-01 -1.243189272337E+03 4.498606077984E+02 -5.010883927549E+00 -4.931908505292E+02 -1.285765228700E+01 -1.187803064035E+00 6.774150930846E+00 6.724061447191E+00 5.819422253660E-01 -1.959392397579E+01 -3.380662959481E+01 -4.054308517587E-02 2.892249763298E+03
 -4.542223817595E+02 -7.148302558257E+02 1.710009259253E+00 8.920453438418E-01 3.847105682620E-02 -2.236606082029E-01 4.659291404649E+02 -7.459284658989E+02 3.995312353381E+00 -1.177536848981E+01 -1.514797818808E+03 8.162813732375E+00 6.071890736558E+00 6.529242925551E-01 1.502662914495E-01 3.627102686273E+01 6.246939791739E+01 -2.105259306917E-01 3.570549400871E-01 2.853740132523E+03
 -7.934267664217E-01 1.918508207271E+00 -8.087389458744E+01 6.216022965084E-02 9.432768258252E-02 -9.775456783176E+00 -5.578930112093E+00 4.020437971099E+00 -7.956237384122E+01 -1.312248948557E+00 7.826395047273E+00 -8.398423189168E+01 2.410498966044E-01 2.009569286981E-01 -9.817533676057E+00 -3.005251486447E-01 -4.100701689234E-01 9.371818151696E+00 7.231165793672E+00 -1.358762274292E+01 1.900484279796E+02
 5.387975149069E-01 -3.005718380070E-01 -2.329152474612E-02 -1.269857419662E+03 -4.489951890960E+02 -5.275658408062E-01 -4.358318965008E-01 3.048251033533E-01 2.795262374977E-02 -1.234853973458E+03 4.711016986628E+02 -7.085256162221E+00 1.390417977016E-01 8.608119057107E-01 -1.974355265218E-01 3.806692360637E+01 -1.590562446063E-01 5.486596051100E-02 4.342592348225E+01 -1.001163101418E+00 3.031973368361E-01 2.813081324164E+03
 1.615979831385E+00 5.787635447322E+00 3.843131940345E-02 -4.355135399278E+02 -7.182155596580E+02 3.437658725476E+00 -1.795590536370E-02 -1.092849460551E+00 1.146288429343E-01 4.569702576153E+02 -7.531116071161E+02 6.436722938996E+00 4.533332902554E+00 8.910347203795E+00 -3.541483160180E-02 -7.240166273707E+01 2.216965560182E+00 -1.525725932096E-01 6.783935733269E+01 -1.123927831556E+00 3.606810381454E-01 4.710045537019E+00 2.471439276198E+03
 3.626401861377E-01 -1.988072767858E-01 -9.182353770179E+00 3.175854208057E-01 3.871580288249E+00 -8.156901741892E+01 -3.787950270225E-01 -1.721451556889E-01 5.092577565907E+00 -7.486463283449E+00 6.844725502177E+00 -8.104586340111E+01 2.794024689369E-01 1.979861123269E-01 4.563686461074E+00 3.208039321669E-01 -2.311246954853E-02 9.829428876525E+00 -2.880822711278E-01 5.877510124932E-02 1.089350607173E+01 8.672080114244E+00 -1.964129060927E+01 1.850706658902E+02
 8.958840301230E-01 -2.031933918645E+01 1.589574578888E-01 -2.265689487720E+00 8.467170915294E+00 5.547410131892E-01 -1.222537827312E+03 -4.553198291503E+02 -2.388751065697E+00 6.249295347269E+00 1.923382079363E+00 -8.483132819259E-03 -6.000833434626E+02 7.791381801558E+00 -3.047084331754E+00 -4.084016551246E-01 -9.071902390322E+00 3.086034420060E-01 -1.196279829007E+01 -3.336823368457E+01 3.928508875779E-01 1.170577944386E+00 1.365148827256E+01 5.895791313094E-01 2.802846585362E+03
 4.615942866493E+00 2.516033814867E+00 4.750109352273E-01 -7.660096819481E-01 7.903243402900E+00 -2.310646122931E-01 -4.570934456320E+02 -7.695312597872E+02 1.678802135292E+00 2.635999429141E+00 4.324260788890E+00 -1.966614038645E-01 -6.956154376975E+00 -1.496005869442E+03 6.016673540010E+00 -5.412281624847E+00 -8.155039776790E+00 -2.840162108330E-01 3.681050138489E+01 5.938626137409E+01 -1.918960923748E-01 -2.968421678007E-01 7.720305068576E-01 3.640749301299E-01 6.620162632013E+01 2.813960697811E+03
 2.364626717824E-02 -2.446840270865E-01 5.319793850390E+00 7.888172229535E-02 6.946375454402E-03 -1.966043252730E-01 -1.977043740450E+00 1.004980280253E+00 -6.661135204129E+01 1.436647303932E-01 2.128244025333E-01 -9.671075639243E+00 -2.994085439124E+00 8.152939993635E+00 -6.508383599783E+01 -1.038773152657E-02 5.531585025862E-02 -8.253636187768E-02 -3.572405090363E-01 -3.069046761410E-01 6.318872816207E+00 -5.221396937975E-02 9.227852956738E-02 4.412198400830E-01 1.072068197613E+01 -1.222438911651E+01 1.376128234654E+02
 -1.840950104504E-01 8.138004233481E-01 -9.790855206769E-02 -2.004970932058E+00 2.482268242282E+00 -5.213395421326E-02 1.978387071211E+00 -7.217847552613E-01 6.793626658344E-02 -1.254014403589E+03 -4.561593953393E+02 -1.531495245269E+00 -1.203661212594E+03 4.523545589097E+02 -6.587156456554E+00 -6.085611695027E-01 -2.467070916035E+00 -2.211295103017E-02 3.941717157367E+01 -3.739705265921E+00 1.087025214963E-02 -2.628277325373E+01 -3.166043831770E+01 -1.369162457066E-01 3.962534884316E+01 -9.291271960484E+00 2.094820551160E-01 2.798437533843E+03
 9.511809959994E-01 7.884281478934E+00 1.688347985387E-02 1.748098895616E+00 -1.817308494518E+00 -2.334330013099E-01 -8.116645772221E-01 -6.437539636897E+00 2.429238524957E-01 -4.454082967786E+02 -7.272538014559E+02 2.338858057634E+00 4.800577720890E+02 -8.009962858485E+02 6.467296419234E+00 -8.956961970684E-01 2.696055825306E+00 -1.180151301057E-01 -7.747461590514E+01 -2.028966885496E-01 -2.745577515035E-01 3.480002800363E+01 5.736111128472E+01 -2.193551235221E-01 9.682910192353E+01 6.786174001016E+00 -2.092196172416E-03 -1.763123841698E+00 2.511887267490E+03
 2.741466220087E-01 1.177123097352E-01 5.341288523429E+00 1.459053315412E-01 1.541753072946E-01 4.736942758195E+00 -1.426163439151E-01 -4.934638519647E-01 -1.003456743129E+01 -9.936994986856E-01 2.795468629386E+00 -8.163013544035E+01 -6.543963331843E+00 6.077024468477E+00 -7.688906034905E+01 -7.993347269470E-02 -7.708471976974E-02 -1.454882326355E-01 7.833705669232E-02 -5.585999110688E-02 1.071391434204E+01 -4.081859891719E-01 -4.623622445861E-01 6.036019933304E+00 5.339681611267E-01 6.482034512179E-01 1.073925656090E+01 9.051883865081E+00 -1.557728906578E+01 1.764040786212E+02
 -1.034394631903E+00 4.446773376003E-02 3.080237019952E-01 1.787759245989E+00 3.323318692093E-01 -1.764306792641E-01 2.055503334112E+00 3.565336026315E-01 1.783592336906E-01 -1.170848882619E+00 -2.327704541825E-01 -8.666434662440E-02 -5.538842386860E+00 -1.878302254581E-01 -2.512144231822E-01 -2.534298606284E-01 -5.794118116370E-01 -1.060130879841E-01 -2.625489517117E-02 5.246835696337E-01 -9.865888061709E-03 -2.957513655721E-01 -4.589127018471E-01 1.574339035177E-01 -1.907000706839E+00 -1.213619879891E+00 1.851615909415E-01 2.258323543678E+00 1.243678367456E+00 1.453967719875E-01 2.802716218436E+03
 -8.049529919914E-01 -4.673750637066E+00 -1.124016068952E-02 -1.086213650266E+00 1.241038232167E+00 7.930104171281E-02 5.899959202663E-01 -2.532897707261E-02 -1.265712639156E-01 4.866205401034E-01 1.593353071778E-01 3.224210700964E-02 -6.422930080203E+00 -7.878798357568E+00 2.601739632179E-01 9.105484901171E-01 1.711419673834E-01 7.020116706782E-02 2.014233861549E+00 3.223279224157E-01 -4.263540764231E-02 -5.385029159404E-02 2.862736503405E+00 -2.151589096542E-01 -1.061932112861E+01 2.083499989565E+00 -1.600290499218E-01 -1.393590477189E-01 3.958914472069E+00 -1.580632103256E-01 1.483474862277E+01 2.487897610100E+03
 4.798610489029E-01 -6.370434972039E-02 1.440881839951E+00 2.258739015639E-01 1.290586637116E-01 -3.858724926809E-01 -3.069788314847E-01 -2.908656072614E-01 6.098888580911E-01 1.087670434190E-01 2.148643370201E-01 -3.095035194424E-01 2.047823908840E-01 1.119889255136E-01 -7.522507234954E-01 -8.066584393074E-02 -1.177013451964E-01 4.785534392646E+00 -1.799755847993E-01 -1.475423537891E-01 -3.834965637308E-02 1.134484465002E-01 3.124380719896E-01 5.712100629911E-01 8.014432574495E-01 9.158915155741E-01 7.363722076217E-01 -1.533159050597E-01 9.323264788050E-02 5.644373450162E-01 1.228638936484E+00 -1.451220657740E+01 1.800312929600E+02
 3.294847198585E+00 2.257881762142E+01 -8.408872986032E-02 -5.488784748354E+00 7.365905392621E+00 -4.099955087798E-01 -2.100701777094E+01 2.545741434505E+00 -4.627911444762E-02 5.722839944346E+00 9.986254722522E+00 1.702609267576E-02 5.119064122910E+01 3.113745239996E+01 3.892794519770E-01 -5.093922205011E+00 -2.029382792064E+00 -2.353023899423E-01 -7.788302205638E+00 -8.788054970366E+00 -1.976661867134E-01 -5.234103153081E-01 -1.150719653003E+01 -3.448453875621E-01 3.977729651000E+01 -2.441034028531E+01 4.092980313472E-01 -1.955201234064E+01 -2.210834066073E+01 -4.081617954946E-01 4.744790152164E+01 8.623569055804E+01 -9.297677488105E-01 3.139897819525E+03
 -4.678234510592E+00 8.848398192369E+00 -7.228977011359E-01 4.188517158521E+00 -1.443145356011E+01 -3.498967507498E-01 -9.814853520212E-01 -2.814425315164E+01 -3.213483816768E-01 -7.268796264284E+00 -7.235280216956E+00 2.397715914157E-01 -2.367367113735E+01 -8.040685934539E+00 1.847554168059E+00 5.533448470301E+00 1.489428978995E+01 -6.067035129122E-02 -8.023562468478E+00 1.713876194691E+00 -3.007078612367E-01 1.979789217020E-02 -6.190561580702E+00 -1.231335929548E+00 7.664474034207E+01 9.782673662859E+01 -1.018317801615E+00 1.462983381436E+01 -1.914972453879E+01 -1.333643620182E+00 3.610234233211E+00 2.415667962881E+00 -1.893418258806E+00 -8.028952874903E+01 3.022379362788E+03
 -1.932407916528E-01 -2.403162350237E-02 -4.666685498177E-01 -9.800143371318E-02 4.823704744233E-02 1.307530539375E-01 2.101205838126E-01 4.192375813784E-01 -2.040633496244E-01 -2.412283814497E-02 -7.056819206469E-02 1.168727321515E-01 -5.205505874108E-02 1.759537466103E-02 2.670600178543E-01 4.333859483669E-03 -4.706095442333E-02 1.062644288164E-01 1.561935445606E-01 8.064253804048E-02 1.230386442085E-02 -8.353550580360E-02 -1.423035382867E-01 -2.244482284880E-01 -1.009525169519E+00 -1.212316499706E+00 -2.745864538022E-01 1.716414538620E-02 1.102153873090E-01 -2.022352512809E-01 -1.133856727290E-01 1.249710768809E-01 9.023273769095E+00 1.764458772589E+00 -1.756537779888E+01 1.856450735366E+02
 -2.671078651390E+01 -3.528132659454E+01 3.230582855923E-01 4.109060613965E+01 1.224060625438E+00 1.723294138632E-01 -1.840461049393E+00 5.360140140746E-01 1.105709034350E-01 4.490127573732E-01 -2.199613405706E-01 -9.227907281282E-02 -5.422770659754E-01 -1.208067265004E+00 -7.775190426862E-02 -1.361312465515E+03 -4.983128090973E+02 1.633733565666E-01 -1.922069331937E-01 -6.505958361041E-01 -9.313290263475E-03 2.352902373325E-01 6.848498027180E-01 1.014720195166E-01 -4.925173038111E-01 1.455769465105E+00 2.937012099344E-02 -1.459900614565E+00 6.079552253987E-01 4.288146351071E-02 -2.403414728587E+01 3.576700548309E+01 -3.563617138162E-02 1.940711467618E+00 -1.541073097907E+00 -8.725927131392E-02 2.902335839767E+03
 3.671775444725E+01 5.999125200905E+01 -2.702151401228E-01 -7.676667750367E+01 1.722560411467E+00 1.325517133312E-01 2.969606770572E+00 -1.349678246162E+00 -8.294919229877E-02 -2.814069823262E-01 -5.987212849833E-01 -2.312866983637E-02 -1.585204984298E+01 -1.232847593284E+01 5.612507679646E-02 -4.800275551563E+02 -7.708469859657E+02 2.891760008113E+00 3.152061990541E+00 3.798724682738E-01 1.057096900090E-01 6.306481785572E-03 3.394052702803E+00 6.807132151379E-02 -1.092639798218E+01 1.087411155642E+01 -2.511433145111E-01 2.454025557671E+00 5.300869691308E+00 5.295885649336E-02 -3.415121631881E+01 5.464928875730E+01 -4.692716322949E-01 2.278261957797E+01 -6.051529100603E+00 8.500377302810E-02 2.851295997608E+01 2.516882937032E+03
 1.544997282238E-01 -6.031873098737E-01 8.399612630753E+00 7.239559121045E-01 1.062861118325E-01 1.144844321622E+01 -5.530633976738E-02 -1.726797274005E-02 8.462638510323E-01 9.728219603707E-02 5.632145923385E-02 -3.817418788422E-01 -1.285406210972E-01 -2.191172951726E-01 -8.847699664446E-01 -3.267405566178E-01 2.616802044625E+00 -8.619287689760E+01 1.180849582044E-02 -9.707321322967E-03 5.174572385645E+00 -9.578523769742E-03 2.373286494658E-01 5.801169528988E+00 1.529005144796E-01 9.387844717211E-01 7.973098636105E-01 -6.162503232704E-02 1.707333089759E-01 6.820541356409E-01 5.988509644807E-01 -5.582539243468E-01 6.919022555692E+00 -3.005111712340E-02 -1.214372031278E+00 -5.953631561925E-01 4.948462910445E+00 -1.240292268647E+01 1.859099515764E+02
 -5.227300162058E-01 -6.315111316331E+00 2.656057055560E-01 -2.343346624534E+01 -3.303297795916E+01 3.778134293508E-01 1.262823445947E+00 2.459726712298E+00 1.559159358558E-01 4.044836320567E+00 2.480973237801E+00 -1.072223099846E-01 2.074944746273E+00 -7.419449071021E+00 -5.701664160588E-01 -2.273740142312E+00 -2.905491965935E+00 4.302013294297E-02 3.719495140913E+00 -1.332662348112E+00 1.839598833608E-01 -1.556104077710E+00 5.689106984650E+00 3.997160942102E-01 -1.965312022166E+01 -5.170258885999E+00 2.118148668202E-01 -3.545089148465E+00 8.098257192952E+00 5.676366138011E-01 4.929940114520E+01 -7.260004761511E+01 1.207760986373E+00 -2.246784878540E+01 5.911548165305E+01 -6.528806600618E-01 4.251040288489E+01 6.777971384387E+01 -1.232716977385E-01 2.935368977828E+03
 9.278427802119E-01 4.155757744478E+00 -9.803092125835E-02 4.121397346860E+01 6.136978307829E+01 -5.870491406468E-01 9.670566897808E-01 -2.182251649058E+00 -8.325032736362E-03 -3.228730143689E+00 -2.099699606805E+00 3.944914481854E-02 -5.543611821552E+00 4.585833921236E+00 1.380381087712E-01 2.137453668732E+00 1.941086859487E+00 -3.438506062514E-02 -2.967361143507E+00 1.343770307575E+00 -7.998897767591E-02 7.600980252828E-01 -4.121642027547E+00 -7.209924911628E-02 1.406159806565E+01 5.389468493755E+00 -3.660815536249E-02 3.577998598416E+00 -5.076653893231E+00 -2.411175526819E-01 -3.169366382623E+00 -9.756287487681E-02 -1.759714674546E-01 -2.551502136051E+01 4.504775647077E+01 4.350514417460E-02 -1.134866801344E+00 3.427376736527E-01 -5.400958344978E-02 4.921758096262E+01 2.813399555773E+03
 2.056329011945E-01 -3.974898147458E-02 -2.953406822736E-02 -2.433674319908E-01 -6.532998243141E-01 9.177947439374E+00 -9.406026856271E-02 -1.781290865952E-01 8.692557501207E-03 8.595870863721E-02 3.766423134158E-02 -4.402535394311E-02 3.078630556908E-01 -1.988293366312E-02 -7.474748047605E-02 -2.096239400433E-01 -3.586429669376E-01 -1.026192573574E+01 -9.843109172552E-02 -3.954385897549E-02 -2.764974719262E-02 1.805372374039E-01 3.340214609724E-01 5.101413576319E+00 5.480789397919E-02 4.891557642452E-02 7.809857079772E-02 -6.169850328015E-02 1.335101419688E-01 6.209892363724E-02 1.041086296345E-01 -2.591044328327E-01 1.063744180494E+01 -1.417197533342E-01 -5.150035553600E-01 4.752163939002E+00 -9.931639870867E-02 3.401014348205E-01 1.175794354427E+01 -8.486898640926E-01 -1.786209324586E+01 2.097012259254E+02
 5.690212115164E-01 1.130128784825E+00 3.336758545096E-02 -3.236072349644E-01 2.795577386602E+00 -1.067755136266E-01 -1.677904584846E+00 3.046927047474E-01 1.382693996591E-02 6.869396172271E-01 2.333901474244E+00 -4.508065915778E-03 4.525889390727E+00 4.129860476106E+00 1.277352791807E-02 -3.872143984406E-01 -1.370069555223E+00 -8.924670659337E-02 -7.769542122065E-01 -1.286574209291E+00 -7.466607526106E-02 8.077786158340E-02 1.275901785925E-01 -8.580222509711E-02 -3.953572971300E-01 -8.569101509066E+00 1.158442175797E-01 -2.405301424892E+00 2.453822092807E-01 -9.933475113046E-02 -1.253718322880E+03 4.443906009798E+02 -3.203801427608E+00 -5.679370543581E+02 -6.115541263441E+01 2.054943618120E-01 -9.675360519076E-01 1.888952743575E+00 3.202156106228E-02 -2.128598317593E+00 -3.938370461318E+00 -1.249761240280E-01 2.816387639314E+03
 -7.256974127276E-01 -4.622535779391E+00 1.550875732451E-01 1.056198626460E-01 -2.099632839486E+00 1.910865845834E-01 4.557598556421E+00 4.912627196341E+00 3.022966459571E-02 -1.542351945874E+00 -3.334476855454E+00 -2.720209824707E-02 -8.756886904258E+00 -5.973741400247E+00 -2.910472530253E-01 1.337253573627E+00 1.070810335112E+00 7.390546317293E-02 2.893480835924E+00 3.049004777466E+00 9.939369787933E-02 -7.620668721069E-03 2.863732863869E-01 2.775392833913E-01 -1.607347234543E+01 -5.790144842840E+00 3.099627216839E-02 3.626121005749E+00 3.821138236098E+00 3.128148592311E-01 4.607950027238E+02 -7.254460786578E+02 4.492903868336E+00 5.157881679065E+00 -1.498840369365E+03 8.841242663658E+00 1.276434758897E+00 -4.580390516371E+00 2.261020684040E-01 -6.091936377965E+00 2.509556522793E+00 1.900567443923E-01 -2.507883090842E+01 2.812357446646E+03
 9.804971916271E-02 1.675132198796E-02 3.116782984664E-01 6.431475116194E-02 6.753642514047E-03 -9.682302344340E-02 -5.245996892960E-02 -1.987967386246E-01 1.338915108515E-01 1.213299335252E-02 4.688170060616E-02 -8.592294952975E-02 -3.451594311392E-02 -6.413532573670E-03 -2.295857137714E-01 -1.514250686443E-02 1.202113759790E-02 -9.702766094953E-02 -8.149495306735E-02 -5.061591437422E-02 -1.767565380097E-02 3.681007116771E-03 4.441230258652E-02 1.748146601111E-01 4.737533400942E-01 6.232608090474E-01 2.279149681765E-01 1.199251848370E-02 -3.854012772304E-02 1.691360350570E-01 -3.181449129294E+00 4.154869155650E+00 -8.242513973213E+01 -1.815239822965E-01 8.733133461843E+00 -7.825493455035E+01 1.936519809106E-02 1.641145597552E-02 5.244337932455E+00 2.900331189748E-01 -2.511673723192E-01 -9.321954145421E+00 7.065236739042E-01 -1.673138635545E+01 1.854784386530E+02
 -1.144043079320E-01 -1.093975237405E+00 -8.924740890997E-02 -8.336687325908E-01 9.761689270984E-01 1.267425824131E-01 -5.056946421420E-01 -2.122290630479E-01 -7.434266788115E-02 3.834423933601E-01 3.672873059541E-01 2.222911314801E-02 2.015238313391E-02 -1.691216006476E+00 1.389966436478E-01 -2.114490124851E+01 3.886348777237E+01 -2.578830372961E-01 7.667211192650E-01 -2.286701061600E-01 -5.158429710309E-03 1.882657138588E-01 9.469608678203E-01 -7.368851993707E-02 -2.341732050560E+00 6.648204664484E-01 -1.030481878496E-01 -4.241150103740E-01 7.939961169595E-01 -6.406940485334E-02 -1.242972602113E+03 -4.566997990668E+02 2.072560338904E+00 1.392959503240E+00 -1.380703976909E+00 1.944414388219E-01 -1.231021012650E+03 4.575745091884E+02 -4.320645047341E+00 -4.866749026652E+02 -5.756675285146E+00 2.550017010873E-01 -2.004106821248E+01 -3.440313416176E+01 1.539804340166E-01 2.854137361308E+03
 2.025100614786E-01 -1.071041216760E+00 1.005270372076E-02 8.619820065715E-02 4.410434697864E-01 -1.690301039347E-01 -2.709209879002E+00 2.350183464188E+00 -5.353544445932E-02 3.133480250689E+00 2.620662472817E+00 6.659783150011E-02 1.193507869777E+01 9.599730162748E-01 7.650982910206E-02 -3.979564170227E+01 6.204480624722E+01 -4.974285311186E-01 8.788384290429E-01 -1.530228213858E+00 -5.306179659754E-02 -1.163599409999E+00 2.663329498824E+00 -1.826397658696E-01 -9.271857756743E+00 -1.140632461407E+01 1.283847265616E-01 -4.535097274605E+00 2.456326380536E+00 -4.698182216530E-02 -4.667942099229E+02 -7.427668048380E+02 3.900060857602E+00 -1.631621475113E+01 1.929482702047E+01 3.535999303881E-02 4.759559780487E+02 -7.503846908858E+02 4.621407589627E+00 -1.169514839826E+01 -1.509621038566E+03 9.479381609620E+00 3.541419892138E+01 6.480012361573E+01 -2.674353722951E-01 2.744425025434E+00 2.879765118986E+03
 -9.485083242638E-02 2.878724480757E-02 4.854444483803E+00 -1.236132341402E-01 7.271265663750E-04 -9.966710984600E+00 1.071179142042E-01 1.146802405442E-01 -1.209372346424E-01 -7.004942406039E-02 -7.881858656361E-02 1.034257034158E-01 -1.107026567990E-01 -7.207251695765E-03 2.590496116066E-01 2.543859133387E-01 -1.117189988250E-01 1.062087852363E+01 8.011183695402E-02 8.381747444281E-02 1.941873986782E-02 1.937610020814E-02 -1.146131169735E-01 -2.061402630826E-01 -2.584070196312E-01 -3.422538307610E-01 -2.362610756244E-01 7.141286591766E-02 -2.721474245483E-02 -2.016031479987E-01 2.185265898710E+00 4.103010186542E+00 -8.110682615514E+01 2.385465664278E-01 5.728722081392E-01 -1.007108369793E+01 -4.486683722035E+00 4.443399649399E+00 -8.198012656223E+01 -1.650443736972E-01 9.714852169820E+00 -8.434522721833E+01 -2.206032638619E-01 -4.211254101264E-01 1.023040362558E+01 2.061467073252E+00 -1.776372681753E+01 1.924854499706E+02
 -2.584724638734E+00 -7.622479481281E+00 8.255091444799E-02 -1.717538752783E+00 -1.851606985189E+00 1.525778779592E-01 3.029075550974E+00 -1.392858689760E+01 -3.073920792583E-02 -3.150715207996E-02 -1.381333344175E+00 -2.628274672892E-02 -2.714097911791E+01 -2.292706317933E+01 5.431464604014E-01 4.628474562295E+00 2.502209840285E+00 2.642160386533E-01 2.702928739474E+00 -4.889184990369E-01 1.259703438928E-01 1.574551285539E+00 6.658999217213E+00 -2.122194518314E-01 9.431904461214E+00 5.198301470522E+01 -6.741918756570E-01 5.335595963170E+00 3.779849916916E+00 -1.521060099007E-01 2.079845943277E+00 -7.582841365201E+00 -2.945354558818E-01 -1.249419973412E+03 -4.264578249241E+02 1.394679132834E+00 -1.704929283375E+00 -1.190496836334E+01 -3.121149241121E-01 -1.324329029292E+03 3.891853327356E+02 -2.680933044661E+00 5.238840875893E+01 5.859514184745E+00 -3.624366453942E-02 3.499400021045E+01 1.802341737362E+00 2.038794677925E-01 3.010697213464E+03
 3.326035640179E-01 -3.569582265987E+01 1.916475918132E+00 -1.850070835024E+01 2.095537015021E+01 1.060676392784E+00 -1.228473497478E+00 5.867090468279E+00 8.745954397970E-01 2.019201639107E+01 1.082792010358E+01 -8.171392472725E-01 1.556616036924E+01 -4.557873952762E+01 -3.333297377635E+00 3.239591302468E-01 -2.093587166887E+01 4.796178331541E-01 2.365276495616E+01 -6.695666191685E+00 1.014656727307E+00 9.637105481533E-01 3.194183626093E+01 2.753539312647E+00 -9.218104197388E+01 -4.473083366882E+00 1.120720685082E+00 -2.179277546005E+01 3.931274757164E+01 3.296248994620E+00 1.537091544711E+01 -1.613977033521E+01 4.473462786059E+00 -4.850215870459E+02 -7.931259556912E+02 2.492228951969E+00 -2.584248669565E+00 -1.779360473155E+01 2.744385637479E+00 3.368363619807E+02 -6.690783124078E+02 3.456127218479E+00 -6.999899904038E+01 3.072742753806E+00 1.418229895572E+00 6.257883890797E+01 -3.562987739571E+01 -1.408579218963E+00 -1.221080748332E+02 3.181734476390E+03
 2.090349949224E-01 3.992000462067E-01 2.149188549534E-01 1.730941409735E-01 -1.467308111054E-01 5.148803349848E+00 -3.571967504644E-01 3.868331538736E-03 8.375748899394E-02 -1.049826963817E-01 2.168272226620E-03 -4.924533259293E-02 5.064408606144E-01 7.180027399029E-01 -5.799770058599E-02 -9.272319087860E-02 1.366522586818E-01 -3.909236511947E-02 -3.081286260387E-01 -4.548882489806E-04 -1.317976015437E-02 1.211336762013E-01 -1.788956954992E-01 4.947096312902E-02 1.065443836233E+00 -3.930352145620E-01 7.858667948637E-02 -8.012200793385E-02 -4.414490806676E-01 4.804615573668E-02 -2.089123199214E-01 3.887877989390E-01 -1.043867172481E+01 1.312287693664E+00 3.860812445339E+00 -9.351199253637E+01 2.159018457960E-01 3.005106558562E-01 4.939596129702E+00 -1.300238907118E+00 3.188067356055E+00 -9.426614916636E+01 6.036808122278E-01 2.486127951328E-01 9.068149755512E+00 -8.225002875862E-01 -1.962514520931E-01 7.139257096892E+00 1.941235476726E+00 -1.383359703183E+01 2.094321649466E+02
 -7.154488875424E-01 4.243026322359E+00 -1.473513772573E-01 -1.290664908590E+03 5.074195801935E+02 -7.199805323992E+00 -1.338301164293E+00 -1.874093229282E+00 -9.792822335815E-02 -3.943411677924E+00 -2.680787047145E+00 -4.737265338825E-02 -5.723562447462E+00 3.259480074857E+00 2.890185862464E-01 4.643613616486E+01 2.282826438211E+00 2.913386734768E-01 -2.019902877578E+00 1.970270554943E+00 -5.270912071503E-02 -2.741127701907E+01 3.352899094989E+01 -7.211932042028E-01 1.756682623073E+01 1.180042664801E+01 -2.297551276790E-01 1.785553429541E+00 -7.800789914681E+00 -2.813357010866E-01 -2.528793836472E+00 2.683878699895E+00 -3.522930005783E-01 4.616584310965E+00 -2.631979452634E+01 2.811440266975E-01 2.585615638747E-01 1.383944344350E+00 -2.486567324008E-01 -1.257017072429E+03 -4.651116055756E+02 2.472901744783E+00 1.510011029576E+00 5.815486650088E-01 -2.098130641449E-01 4.017775476977E+01 6.368582566331E+00 7.208034688118E-02 -2.059228294911E+01 1.176490648993E+01 4.684282862586E-03 2.876013124896E+03
 1.714024161232E+00 1.144065940371E+01 -1.392346906701E-02 4.995793723074E+02 -8.051149476281E+02 7.638815351038E+00 -5.087658950391E+00 -3.947408272114E+00 9.246220415457E-02 -2.014235850530E+00 -4.081289889686E-02 5.792003188015E-02 1.648410081029E+01 1.717548000387E+01 1.401460760840E-01 7.293899063770E+01 2.216440799785E+00 1.654352464444E-01 -5.539091057073E+00 -9.060243487807E-01 -1.496128299881E-01 -3.080733312697E+01 5.832963521342E+01 -6.799173060171E-01 3.302678021434E+01 3.891094301722E+00 1.899574884891E-01 3.712830418614E-01 -1.240667652191E+01 -2.119436864064E-01 1.558344061293E+00 5.089859940645E+00 1.040152150753E-02 -3.523045251253E+01 -2.404638678579E+01 2.467989867342E-01 2.281457636162E-01 6.791140136865E+00 1.486517115483E-01 -4.243578603557E+02 -7.265056505045E+02 5.544282658048E+00 -1.891361649336E+00 7.995108767809E+00 -1.086511220933E-01 -7.045569959295E+01 4.792076525626E+00 -3.173634805022E-02 3.665023044012E+01 1.092092195336E+02 -8.440979034078E-01 -1.192522352348E+01 2.529426659372E+03
 1.624578647162E-01 1.133646614907E-01 5.743015310862E+00 -7.822530725935E+00 8.281547317640E+00 -8.428348878788E+01 -1.453796302412E-01 -2.816972296469E-01 2.378948160629E-01 1.388933356623E-01 1.929378468618E-01 4.998008364573E+00 -9.873795763034E-02 3.327505060370E-03 -3.875868368442E-01 -9.547093934645E-02 8.323935272309E-02 1.205862688058E+01 -2.430351443416E-01 -2.192499630394E-01 -1.605135595649E-02 1.644886534580E-01 -1.284466079026E-01 6.444395067151E+00 6.828213538502E-01 8.632652234581E-01 4.548123639719E-01 -1.823680699178E-02 7.030089560950E-02 2.693707375079E-01 3.313378627930E-01 -1.127677472255E-01 5.586188050380E+00 3.055962545252E-02 -1.612751428721E+00 5.179699795017E+00 -5.945813311521E-03 -3.423266958077E-01 -9.368100223807E+00 3.514840969975E+00 4.907617155995E+00 -9.180628881675E+01 3.257605936492E-02 -1.511067967374E-05 1.103875795778E-01 1.580289466138E-01 2.599552249291E-01 9.696257295381E+00 -4.524592425592E-01 3.734924744217E+00 1.299966489458E+01 5.057770748807E+00 -2.786230030942E+01 1.905772777571E+02