#BIOSYM hessian 1
@Type: Hessian Update
@Units
 distance: 	A
 energy: 	Kcal/Mol
#header
@natom 67

#label
C1      C2      C3      C4      C5      C6      C7      C8      C9      C10     C11     C12     C13     C14     C15     C16     C17     C18     C19     C20     C21     C22     C23     H24     C25     C26     C27     C28     C29     C30     C31     C32     C33     C34     C35     C36     C37     C38     C39     C40     C41     C42     C43     C44     C45     C46     C47     C48     C49     H50     H51     H52     H53     H54     H55     H56     H57     H58     H59     H60     H61     H62     H63     H64     H65     H66     O67

#element
C  C  C  C  C  C  C  C  C  C  C  C  C  C  C  C  C  C  C  C  C  C  C  H  C  C  C  C  C  C  C  C  C  C  C  C  C  C  C  C  C  C  C  C  C  C  C  C  C  H  H  H  H  H  H  H  H  H  H  H  H  H  H  H  H  H  O 

#matrix
201
 2.775106920146E+03
 -1.346022301315E+01 2.809139545092E+03
 -1.548828664660E+01 -4.183312171795E+01 1.922564424075E+02
 3.879825289682E+01 6.668765807301E+01 9.198029309426E-02 2.793919240141E+03
 1.575339597061E-01 7.998965316146E-02 9.518571313605E-02 -2.300300292934E+01 2.768436749160E+03
 3.134262869692E-01 -1.064872492729E-01 9.025776225184E+00 -1.433301606898E+01 -1.446577262881E+01 1.933564936041E+02
 -1.941378749830E+01 3.425298754123E+01 -3.445780171914E-01 -1.267434309204E-01 1.260882088850E-01 3.400055348499E-01 2.792059772482E+03
 -3.140507233342E+01 5.898764905932E+01 5.464684980510E-01 4.959206759577E-01 -6.217858367748E-01 -4.461380046432E-01 2.578670440312E+01 2.747780018087E+03
 1.526855566936E+00 -9.061981597922E-01 9.106441392918E+00 1.849906333405E-01 2.534384390751E-01 -6.078158372344E-01 -3.391801480980E+01 -9.885555696680E+00 1.884602801534E+02
 3.748662442711E+01 -6.675898731745E+01 -2.703137896396E-01 -1.941940986629E+01 3.476376950688E+01 -5.868744882970E-02 3.970514654593E+01 6.919852346947E+01 -8.206897208379E-01 2.796394907191E+03
 -2.439016771029E-01 2.134204624607E-01 1.953806214658E-01 -3.304584851585E+01 5.892065408332E+01 1.439147890869E-01 -1.462944959699E-01 -4.480769967361E-01 8.828895676360E-01 4.868464571858E-01 2.805162343138E+03
 -4.130962452482E-01 7.777876954924E-01 8.761232010841E+00 5.181987416934E-01 -3.701774478352E-01 9.412561278311E+00 -5.944998793768E-01 -1.096926594674E+00 9.906088339925E+00 -2.451073857270E+01 -1.735436745033E+01 1.937364836093E+02
 -1.685446375117E-01 -8.875593051063E-02 -2.189472832882E-02 -3.022318720452E-02 6.989596213076E-02 -5.105471595665E-03 5.104696234174E+01 -8.251875739560E+01 -5.586550147774E-01 -2.143534613582E+01 3.718391812145E+01 1.845091762821E-01 2.601430272057E+03
 7.145569877919E-01 -1.177229571470E-02 -2.557989485363E-01 1.958602977674E-01 -1.746118786949E-01 -4.758578005965E-02 2.224287287637E-01 -1.241325443517E+00 1.548240876899E-01 -3.519048666635E+01 6.112147821520E+01 1.594847970945E-01 -1.706140416541E+02 3.049579744808E+03
 4.059553047422E-02 1.563824177284E-01 3.942835236432E-01 1.017647002005E-02 -1.163255248338E-01 1.590226576724E+00 -1.115165208274E-01 8.108224267337E-01 1.305154460678E+01 4.313844654584E-01 -7.980601512476E-01 1.121767163487E+01 -1.544276489185E+01 -8.362352874582E+00 1.509135052880E+02
 -1.216825283159E+03 4.403616549240E+02 -6.575813418101E-01 -4.626711604570E+02 -4.914126883021E+00 4.333074849958E-01 3.709068119053E-01 -1.187996391519E+00 -3.851997393154E-01 6.887217805462E-03 1.271915935851E-01 -2.618789125356E-01 9.706020151977E-02 -4.772674214110E-01 1.290678659148E-02 2.813810154804E+03
 4.342198374982E+02 -7.325099300966E+02 4.961563377279E+00 -2.845024028530E+00 -1.431772460245E+03 8.136284759153E+00 -1.628124494243E-01 4.228851880300E-01 -5.339078417687E-02 1.830722519956E-02 6.147842788492E-02 9.821014964586E-02 -2.302861989177E-02 1.365775324963E-01 -4.745140777054E-02 4.084432212319E+00 2.772681333421E+03
 7.449786923517E-02 6.488557892123E+00 -8.254360032659E+01 1.053983672961E+00 7.507378314580E+00 -8.045650273244E+01 -4.487223731455E-01 2.665472359010E-01 5.278756129673E+00 3.434049057812E-01 -9.322429525046E-02 -8.743235407694E+00 1.061588445520E-01 2.230225233183E-01 3.804620674506E-01 -7.953555334209E-01 -1.453195691685E+01 1.917343943164E+02
 -1.196752807183E+03 -4.158420914982E+02 1.556371605179E+01 3.216156428865E-01 -3.808566229953E-01 -2.145266343786E-01 -1.240426529180E+03 4.357366348940E+02 1.352729504634E+01 -4.694361328837E+02 -1.198420639270E+00 4.870578915199E+00 2.678029565079E-02 -8.612219401575E-01 7.732941148346E-03 -1.982148930423E+01 -3.235091510163E+01 6.911348414629E-01 2.792343283937E+03
 -4.143507680650E+02 -6.955661303487E+02 9.844903186288E+00 -1.985508968907E-01 -8.523675509885E-02 2.853115901705E-01 4.461508885709E+02 -7.299299550668E+02 -4.855722662017E+00 -4.273229089712E+00 -1.461251947938E+03 9.753715988254E+00 -7.311009201558E-02 4.441402974774E-01 -1.734046547628E-01 3.424325878963E+01 5.773308991298E+01 -1.540375026750E+00 -2.152993081710E+01 2.768588978555E+03
 1.468145972799E+01 1.181573572035E+01 -8.055087212372E+01 -3.438920389805E-01 -2.323950911164E-01 -8.149456632983E+00 1.460741829822E+01 -4.309074503238E+00 -8.301719191109E+01 4.737486184502E+00 9.151307595869E+00 -8.192077118886E+01 -1.252788771196E-01 -1.180940404204E-01 -9.862958548758E+00 -3.434305178403E-01 -1.032220561564E+00 8.576449486322E+00 -3.374832052802E+01 -1.583517191677E+01 1.915451580539E+02
 2.830007194045E-01 1.670692251284E-01 -6.844612447082E-02 -1.223070096288E+03 -4.220638461706E+02 9.367348024120E+00 6.461110949954E-02 -1.665322808696E-01 -2.282197467418E-01 -1.216127714040E+03 4.345251247987E+02 7.204947846862E+00 6.718363302224E-03 -3.646472979655E-03 1.404749846094E-02 3.724172073395E+01 -2.131467958517E-01 -3.217761470347E-01 3.957982256698E+01 -7.445059875045E-02 -2.063266426977E-01 2.802080992478E+03
 1.173146841928E-01 -2.708290408660E-01 -3.917998374832E-01 -4.250252023412E+02 -7.079026628397E+02 5.679389514988E+00 3.895044710334E-02 6.620875607054E-02 -4.605494819829E-01 4.372843542461E+02 -7.298304199108E+02 -3.361540233587E-01 -2.141881453575E-02 -5.375297883979E-02 5.251874112636E-02 -6.681510921815E+01 3.084172632693E-01 7.948421929753E-01 6.766132593880E+01 -3.775709305890E-03 -2.238026801335E-01 3.469897305121E+00 2.799913001514E+03
 -1.165614457283E-01 -1.328786430691E-01 -9.163625538770E+00 9.611589286335E+00 6.146529742736E+00 -8.321432562490E+01 -4.654469721326E-03 -5.720965687272E-02 4.595341308268E+00 6.944287722514E+00 3.395036889799E-01 -8.303682988623E+01 2.827433452544E-02 2.215725926410E-02 3.881431139694E+00 1.266321752905E-01 1.850426134254E-01 8.516042563660E+00 -6.240831022042E-01 7.787228284918E-02 8.617005398917E+00 -1.903463587165E+01 -1.444035220822E+01 1.945238443520E+02
 -2.163826012495E-01 -3.194877236525E-02 -1.489814917888E-01 -1.231029204066E-01 8.928063727315E-02 -4.507120891368E-02 -1.229514487422E+03 -4.430991925758E+02 1.177067739404E+01 -8.366169313329E-02 -1.270669420403E-01 -1.586796639185E-01 -5.652161376617E+02 -2.466533285652E+00 2.303530184964E+00 2.146425312179E-01 -1.130584438988E-01 -3.924196282564E-02 -2.096440852359E+01 -3.725037367154E+01 3.174620474658E-01 4.542423796261E-02 5.012416568421E-02 1.089078110878E-01 2.594353052395E+03
 -8.383593550404E-01 -6.681545608731E-03 1.413047019803E-01 -2.102784608248E-01 2.354571919627E-01 1.265063160741E-01 -4.593270189014E+02 -7.711850212033E+02 7.879252344450E+00 -1.235078207805E-01 1.350619255150E-01 -2.583363816903E-01 -1.336150259779E+01 -1.818477875005E+03 5.678188750209E+00 5.447805687871E-01 -1.459471302982E-01 -3.119429784537E-01 3.580255163833E+01 6.052623065671E+01 -3.466940533977E-01 1.352566415299E-02 1.007518680998E-02 5.183963659570E-02 1.843808768035E+02 3.029667791577E+03
 1.074168891113E-01 -2.629200046835E-01 4.553360410246E+00 1.529133598104E-01 -8.735261937810E-02 6.161025163068E-01 1.086145110609E+01 6.165925067923E+00 -7.905013116585E+01 2.623633591772E-01 -1.592723818208E-01 -1.071267063507E+01 2.574924914008E+00 7.000150660040E+00 -7.060660841014E+01 -1.517172560242E-02 2.023038783801E-01 -6.076518065987E-01 1.755762283223E-02 1.112499393402E+00 9.816309088803E+00 1.633955684845E-02 1.075795157880E-01 2.677763747602E-02 -1.290426841562E+01 -1.642733244856E+01 1.536841106477E+02
 1.646738760857E-01 3.641574976968E-02 3.111569106753E-01 9.711987203828E-02 -3.745516032936E-02 -1.548570575822E-02 2.083904057697E-02 -4.641176261334E-01 3.002548636726E-01 -1.227671699245E+03 -4.364619610692E+02 1.360850436194E+01 -1.262757538335E+03 4.591134445026E+02 7.541456592836E+00 -1.685266092738E-01 8.544969746266E-02 -2.491060241355E-01 3.938780990121E+01 -1.620742309566E-01 -2.829391039596E-01 -2.013339536880E+01 -3.439389873384E+01 4.210802453356E-01 5.126871043997E+01 1.530839771053E-01 -6.049708822381E-01 2.847686123711E+03
 -3.317611096281E-01 -1.081191353579E-01 2.374683486847E-01 -1.127708256428E-01 1.438591603162E-01 -2.905132180806E-02 -1.426498176465E-01 9.995335302174E-01 -5.691947228669E-01 -4.350402039393E+02 -7.325143585969E+02 8.368350187774E+00 4.491907442582E+02 -7.810573866380E+02 -4.563933062609E-01 1.844900501726E-01 -5.936039642654E-02 -8.405798809683E-02 -6.788299946370E+01 -1.213085779961E-01 6.019852305056E-01 3.482828633781E+01 5.923199519345E+01 -8.514699758709E-01 8.461247443184E+01 -6.095796130063E-01 -8.677427929354E-01 -3.567024981461E+01 2.884913998341E+03
 -1.388121633217E-01 -1.176689555324E-01 3.837738940984E+00 -1.158035890257E-02 1.417076682425E-01 1.979895189758E+00 -2.521500878715E-01 1.204115936350E-01 -1.100624545598E+01 1.345709122935E+01 8.381445916154E+00 -8.566743330550E+01 7.675719162265E+00 -1.061216293381E+00 -7.926552199543E+01 5.751790500216E-02 7.954787289325E-02 -5.189909982339E-01 3.559808442017E-01 -8.804088662239E-02 8.727720015212E+00 -2.612175757317E-04 1.001255412289E-02 1.034434315247E+01 -3.359528751236E-01 3.209516002088E-01 1.128469675559E+01 -2.427655175718E+01 -1.448749433240E+01 1.885238003947E+02
 -7.163094457698E-02 -5.207637024210E-03 -8.620900035241E-03 -2.662919399596E-02 1.036816148005E-02 3.727038132207E-02 -3.740236830686E-02 2.217677619873E-01 2.349036670292E-01 7.175815611813E-03 1.858354686711E-02 4.312175191504E-02 -9.490899586979E-03 6.957383183867E-02 5.608870852016E-02 4.769818347217E-03 -1.849873113808E-02 -7.348120497373E-03 9.683845325229E-02 -3.086150247764E-02 8.832656807879E-02 -3.589574033685E-04 -3.337311235732E-03 -7.657089754828E-03 -6.238601608452E-02 -1.059585286551E-01 -1.391497498167E-01 7.724481322063E-03 -3.785474256667E-02 -6.737593275972E-02 2.804405851362E+03
 1.418123274811E-01 -3.167328179250E-03 1.495311683912E-01 8.359551544630E-02 -7.014466086474E-02 1.679431301831E-01 1.395077695432E-01 -2.511306908931E-01 -1.361860988008E-01 3.824356232700E-02 8.629102327807E-03 -2.029099438064E-02 2.173786609234E-02 -9.581134265677E-02 5.917229505357E-02 -9.645420854938E-02 -6.407959573842E-02 2.426774931101E-03 -1.786872129130E-01 1.612439328493E-02 7.684757523989E-02 -3.091109890849E-02 -4.601883267275E-03 -5.391416306312E-02 4.213154970424E-02 1.017835602511E-01 2.737314618065E-02 -5.311665167750E-02 3.560383058026E-02 -1.032305843006E-01 2.788621911954E+00 2.798069546610E+03
 -2.559977691325E-02 -1.866519147532E-02 7.372500116465E-02 -6.260021305316E-03 1.006075132051E-01 3.157337265799E-01 2.274016668008E-02 -6.053419530678E-02 2.195330294877E-02 -2.660072055861E-02 1.721446528766E-02 7.365075615951E-02 -1.238083768481E-02 -2.254320566852E-02 2.423625240117E-01 1.071695107827E-01 -4.182157058875E-02 4.571941016940E+00 2.120139909380E-02 2.345308715397E-02 1.074926205177E-01 3.249825255908E-02 -4.141302847446E-02 -1.575252016861E-01 -2.723095429766E-02 2.652997636693E-02 -1.484593353565E-02 1.674332577643E-02 -3.302709735535E-03 -3.802187647115E-01 6.456993254082E+00 1.801527971457E+01 1.935142715927E+02
 -1.453400276719E-01 4.049237461537E-02 -1.175740680259E-01 -3.728139752883E-02 4.620598439480E-02 -1.090755652493E-01 -1.258645446609E-01 2.788251725907E-01 2.148460864290E-01 -1.100869011704E-02 1.194127397193E-02 4.944034839655E-02 -2.035006876541E-02 1.054262112496E-01 3.723343214558E-02 7.290757656898E-02 -1.662646227045E-02 -1.233172769474E-02 1.635301187919E-01 -5.341616322602E-02 -2.865567779166E-02 3.396978585309E-03 -1.997283494826E-03 1.199229307546E-03 -6.452532500842E-02 -1.281685652406E-01 -1.566633089207E-01 3.209399487465E-02 -4.611423382519E-02 -3.486792869409E-02 4.148854184529E+01 7.123671950074E+01 4.012105514613E-01 2.792079197745E+03
 -4.830414396162E-02 -2.126586450156E-02 4.612617352954E-03 -1.444995952275E-02 1.642237997137E-02 6.576762466065E-02 8.049270888733E-03 5.940462578063E-02 -1.401410589639E-01 -1.404484462431E-02 -6.336301443299E-03 -1.158839559478E-02 -2.133612582271E-02 3.879187370587E-02 -1.828667839492E-02 4.350164236137E-02 1.303133973871E-02 -5.823700757092E-02 4.344510566015E-02 1.219851850549E-02 1.866295316181E-02 1.451547622441E-02 2.881821862617E-03 8.831423040395E-03 -1.153023011070E-02 -3.621557246283E-02 1.235248037743E-01 3.274754631874E-02 -2.973083535396E-02 7.033525283841E-03 -1.054337934914E+00 -1.766020337961E+00 -2.389613466287E-02 2.813696211233E+02 2.858909632115E+03
 2.720049524042E-01 -9.431806768120E-03 8.277823522571E-01 7.251248927484E-02 -1.702872493803E-01 3.866402420071E+00 4.828000763950E-01 -4.952566610140E-01 -3.895554154506E-01 1.063512895105E-01 7.873004137369E-02 7.764234104033E-01 2.097511315448E-02 -6.288994899364E-02 2.703502347134E+00 -2.523494294341E-02 8.319676805509E-02 4.431140249564E-01 -3.962028347908E-01 2.042710187626E-01 1.275299411620E+00 1.029985357319E-01 -2.179431862238E-02 -1.809463531696E+00 -1.823128801761E-01 9.590745058007E-02 4.390655084092E-01 -6.519630707522E-02 -7.986181450202E-02 -4.331470999832E+00 3.398815693957E-01 1.755271855376E-01 1.134696643229E+01 -7.283075111531E-01 2.165382064673E+01 1.557231806705E+02
 -2.026690204387E+01 -3.426384098277E+01 5.250201836647E-02 3.839252264483E+01 -1.723323058096E-01 3.423881312093E-01 -1.697690983086E-02 3.701317278284E-01 3.695117773946E-01 -5.720455008406E-03 -1.787406098959E-02 4.623341982471E-02 -3.838464305433E-02 1.482561999655E-01 3.282189703483E-02 -1.252989254245E+03 -4.368260919591E+02 1.123457294448E+00 1.520350850031E-01 2.571375140068E-02 3.949020070295E-01 1.614665048268E-02 2.320316400745E-02 1.756203671917E-02 -4.349982987920E-02 -1.763333958929E-01 -1.390689070437E-02 5.278122314438E-02 -6.334138582822E-02 -8.592995654206E-02 -1.938668062148E+01 3.388826444640E+01 -1.705497605422E-01 -2.103588025981E-02 -6.907255846355E-03 1.229590348544E-01 2.787743972367E+03
 3.518570051364E+01 6.032404296319E+01 1.292620077253E-01 -6.830571248782E+01 4.203364473953E-01 -1.672241476603E-01 -2.360151150233E-01 9.762711247434E-01 -9.687454051508E-02 -4.554756503759E-02 1.774500216245E-02 -3.951934254419E-02 -1.125715564990E-01 3.382215802567E-01 1.878426697043E-02 -4.399098103863E+02 -7.248561730863E+02 1.745927092315E+00 4.688988476620E-01 -1.008540803536E-01 1.999396912602E-01 1.062427020425E-02 -1.879836983829E-03 2.432807623795E-02 -1.176133299097E-01 -4.181809205718E-01 -1.268072514222E-01 1.297677076426E-01 -1.787854285698E-01 -5.217706879877E-02 -3.270582004394E+01 5.730609119204E+01 -9.897275854726E-03 -4.190680846409E-02 -4.204420472141E-02 -1.322638232743E-01 1.959118222850E+01 2.798612430872E+03
 -6.567539391194E-01 -1.783990065435E-01 9.835702580753E+00 3.630128559404E-01 -4.337933098229E-02 9.072863311457E+00 -2.512544874368E-01 1.138522812156E-01 4.075285694081E-01 -8.170614025653E-02 5.395753816921E-02 8.825093570359E-02 -3.523991929877E-03 8.129897262213E-02 1.778603673929E-01 7.418269020651E-01 1.734321744365E+00 -8.291789808344E+01 2.512713757492E-01 -8.465847389629E-05 4.592681475314E+00 3.329429912107E-02 -6.033876493315E-02 4.433449437855E+00 -3.131098339806E-02 -9.846688967821E-02 -3.778827272681E-01 -4.260394620417E-02 -6.765851908907E-02 -2.301398713888E-01 -4.966712385529E-01 4.531681956573E-01 8.718359295989E+00 -8.567454736330E-02 -7.353553718742E-02 1.517933549647E-01 4.570180374142E+00 -6.692349978240E+00 1.914626511813E+02
 -4.139120928626E-01 5.545581178693E-03 -4.388963080166E-02 -1.919840654954E+01 -3.167476653378E+01 5.291720615580E-02 -3.084669075036E-01 7.491874115738E-01 3.942887126934E-02 -5.212742091133E-02 -3.679289023336E-03 4.006426336638E-02 -7.005419569061E-02 3.077269597312E-01 -3.734242528179E-02 2.056836687544E-01 8.546583622474E-02 -7.160623669513E-02 4.463623189656E-01 -6.415893860984E-02 -6.060341973045E-02 2.841471917437E-02 2.782742850151E-02 7.329853794076E-02 -1.056612637055E-01 -3.289466593126E-01 6.359903007405E-02 1.183841590295E-01 -1.405543151069E-01 4.152412684795E-02 3.922558586532E+01 -6.908078027696E+01 5.576122570738E-02 -2.306640003874E+01 4.029462182197E+01 8.669233682604E-02 4.001749216715E+01 6.692747040911E+01 2.120615829666E-01 2.782013773293E+03
 -2.385663537837E-01 1.100289003323E-02 -3.429539598153E-01 3.372776632807E+01 5.634674099799E+01 -1.290545966007E-01 -1.254946807347E-01 5.053949059382E-01 1.273371114297E-01 -1.436560017198E-02 2.516230267181E-02 6.647562219437E-02 -4.906285718076E-02 1.735964320791E-01 6.371548017246E-02 2.435353876819E-01 -5.501961957404E-02 -1.157636506490E-01 2.666614582418E-01 -7.284611832390E-02 9.234630622814E-02 1.626477905686E-02 2.424552150199E-03 2.486470723706E-02 -9.902232968026E-02 -2.178342409352E-01 -1.311072725341E-01 6.439082469442E-02 -8.571454151272E-02 -1.057579442487E-01 3.857665793722E-02 4.223044918157E-02 -3.460637885147E-01 -4.250106490519E+01 7.417209924487E+01 7.139349272329E-01 -1.099695309569E-01 -9.409462279199E-02 2.246726405270E-01 -3.220438211955E+01 2.760647881372E+03
 -3.429916703514E-02 -2.300012826829E-02 -2.245909586013E-01 -1.275202577727E-01 7.024099107028E-02 6.998843391621E+00 -2.466317948345E-01 3.499717240332E-01 7.496469153472E-01 -1.473956679471E-01 -1.233770459364E-01 -1.211784594507E-01 -9.497926326530E-02 1.135652425026E-02 -6.250831869844E-01 3.599081870759E-02 -3.665754792331E-02 -8.877993583584E+00 3.387880749001E-01 7.286120179782E-03 -3.629216108859E-01 2.166708235139E-01 9.078333260272E-02 4.787395573312E+00 -6.795616639643E-02 -5.137847465099E-02 -7.191066330183E-01 1.800724609713E-01 7.995583758893E-02 1.079549657575E+00 4.027769430818E-01 -6.218265100135E-01 9.349323101219E+00 -1.993254806865E-01 5.972222451406E-01 1.058417683645E+01 6.269463249725E-02 3.322415369420E-01 9.094347108016E+00 -1.302835952612E+01 4.594713532653E+00 1.860341761713E+02
 3.018072022342E-01 -1.057801078376E-02 1.053098673910E-01 6.086771220811E-02 -7.885712765898E-02 5.355068371109E-02 2.101814360983E-01 -6.364707752731E-01 -2.758493115467E-02 1.850254161825E-02 -1.073559390956E-02 -2.066206320373E-02 5.504846102501E-02 -2.338780811316E-01 1.722660819924E-02 -1.742655467859E-01 6.184008673734E-02 7.702440560881E-02 -3.314474630980E-01 7.801885013208E-02 -2.061981586266E-03 -6.749886654907E-03 -1.942735889762E-02 -3.440661842476E-02 9.378964919034E-02 2.724081057442E-01 1.233055984055E-02 -8.008629372773E-02 1.078110980639E-01 -2.000906905299E-02 -1.231414193634E+03 4.328811197392E+02 -1.437260325279E-01 -5.066902729739E+02 -1.594774196995E+01 -1.074476900551E+00 6.011776148569E-02 1.208435170901E-01 1.796452057902E-01 2.141685379502E-01 2.910374417711E-01 -1.857613104546E-01 2.844562422970E+03
 7.188840881087E-02 4.718612798938E-02 -8.742460831310E-02 2.361337747249E-02 -2.841953984022E-02 -5.736580222667E-02 5.151574798292E-02 -1.531612253468E-01 3.817510469736E-02 1.530795354237E-02 1.716029919674E-02 1.721996686481E-02 3.375467491645E-02 -7.340361449278E-02 2.164792993624E-02 -7.360977999765E-02 3.283778785604E-02 -2.979847478505E-02 -8.186090945537E-02 -1.082273546967E-02 -3.034923196174E-02 4.795055514666E-03 -1.019381950425E-02 -1.247243202963E-02 -6.824773236793E-03 6.592120580257E-02 -7.287902940959E-03 -4.144054375597E-02 2.633503551813E-02 -1.576296056960E-02 4.343294609925E+02 -7.298902143442E+02 -3.794278839596E+00 -2.582007128258E+01 -1.535783898016E+03 -1.231849223837E+01 5.654885054307E-02 7.801042090316E-02 -4.795579981085E-02 2.032233748274E-01 -9.429406197683E-02 -1.189829876645E-01 3.287889021601E+01 2.888048608648E+03
 -1.201556018144E-01 -4.763715753093E-02 -5.731062800588E-01 -7.033139281354E-02 1.321194943718E-01 -2.606831997396E+00 -2.371884705943E-01 1.293181550784E-01 3.036073198319E-02 -9.022487837754E-02 -5.860967182082E-02 -5.733429427245E-01 -5.870473281792E-03 -3.785775813809E-02 -1.909689375085E+00 3.594032624713E-02 -7.213358793571E-04 -3.721378087803E-01 1.919716640454E-01 -8.577044089503E-02 -8.817324845577E-01 -3.968901216507E-02 2.188815499255E-03 1.249774276062E+00 1.550610690768E-01 3.774048598827E-02 -7.868015777501E-02 3.672783194267E-02 8.214975706027E-02 3.033553457413E+00 -9.244888318503E-01 -3.215916958414E+00 -8.539083915179E+01 -6.098999994103E-01 -1.279236189713E+01 -8.118796709873E+01 -1.370915596685E-01 3.315750023683E-02 4.328162535799E+00 2.184057173833E-01 1.789596064316E-01 -9.309350892574E+00 9.696234001991E+00 2.344921901576E+01 1.872280943127E+02
 -3.451338735503E-02 -9.042992480746E-03 2.581179605282E-01 -2.202972110843E-02 6.857089594390E-02 -1.089617332792E-01 -3.254492456534E-02 1.408122420567E-01 -2.383647539442E-01 -1.576181418587E-02 -1.963857788678E-03 -7.028472486293E-02 -3.215276850079E-02 3.433851199577E-02 -3.510186670939E-02 -1.962647215980E+01 3.471906428293E+01 -2.599595289640E-02 7.498200553716E-02 -1.594107396393E-02 -4.718636921875E-02 6.426725989579E-03 -1.478793597936E-02 -1.144716236834E-02 -1.147620247478E-02 -4.622020356821E-02 4.172218826690E-02 3.136000124273E-02 -2.250807633328E-02 5.116477012942E-02 -1.219220314831E+03 -4.243922226004E+02 -4.685499941520E+00 -1.050836141089E-01 1.195232597610E-01 5.208962480911E-02 -1.178378269887E+03 4.248904304790E+02 -2.526433737497E+00 -4.727287577848E+02 -7.358129458578E+00 1.031519845508E-01 -1.954358754537E+01 -3.395616527168E+01 -4.571678767721E-02 2.754902894876E+03
 2.476611240969E-01 6.896470488959E-02 9.977174477848E-02 5.957168580153E-02 -7.220973595842E-03 -2.619438307437E-01 9.049510685659E-02 -5.566672470142E-01 2.672653277762E-01 -2.211224781532E-03 6.428523363616E-04 4.959317757224E-02 6.292536458032E-02 -2.025167276932E-01 6.146142521931E-02 -3.337825359925E+01 5.876729928938E+01 -1.560674933706E-01 -2.345188909509E-01 4.059533657684E-02 -1.962957619079E-01 1.798009940703E-02 -2.780702867527E-02 -5.182535342591E-02 3.138400345039E-02 2.355393674120E-01 -1.395014666897E-01 -7.180666240243E-02 9.807846475903E-02 -3.609670034560E-02 -4.273489189760E+02 -7.121801353448E+02 -3.501309868265E+00 3.527206424096E-01 9.151457165740E-02 3.384076256782E-01 4.269004565423E+02 -7.168547969418E+02 1.178617171620E+00 1.074529588415E+00 -1.496172907285E+03 -2.779280302953E+00 3.408186036777E+01 5.949076713078E+01 3.405333491416E-02 1.623372902231E-01 2.807289179491E+03
 1.467883442243E-03 5.144959794912E-02 4.880674894117E+00 2.055334675510E-01 1.278709380465E-01 -7.246876904219E+00 1.986725618275E-01 -3.096945250280E-01 -3.181775616690E-01 4.666535231799E-02 1.103116230315E-01 2.897339921660E-01 1.938216365905E-02 -4.946871330333E-02 1.071349870833E+00 2.024278804370E-01 -3.543373353559E-01 9.186251170694E+00 -1.549370130447E-01 3.630769963247E-02 5.138658207745E-01 -5.024306301151E-02 -8.532502064334E-02 -7.381980831392E-01 -3.766650078353E-02 8.428464020948E-02 3.337215459480E-01 -5.097542332613E-02 -4.935925167341E-02 -1.735874355756E+00 -4.161511756654E+00 -3.872654690191E+00 -8.189253131253E+01 9.179387971042E-02 -9.884397154070E-02 -7.899149597933E+00 -2.672019658098E+00 1.743497956904E+00 -8.065244238263E+01 7.027633678381E-01 -3.198350609911E+00 -8.328844886260E+01 2.873144969929E-01 4.579622305810E-01 7.948127631379E+00 7.090892674709E+00 5.403415686312E+00 1.917665003884E+02
 2.580676599808E-01 6.459126926594E-03 1.158432801464E-01 7.770764381953E-02 -5.927683053601E-02 1.322304669774E-01 1.759613133682E-01 -4.386909955745E-01 1.369345580363E-01 3.706059796000E-02 2.031629438586E-02 1.748528658997E-02 5.131173288587E-02 -1.875375834686E-01 1.016403461949E-01 -1.795596932677E-01 5.733763415666E-03 7.859366601844E-02 -2.595782354191E-01 2.594543890409E-02 4.360375587094E-02 -2.302758678420E-02 -3.017491275530E-02 -6.729797988177E-02 4.238345826508E-02 1.871178360609E-01 -1.571381007719E-01 -9.088091491691E-02 8.420887917863E-02 -1.283824132987E-01 -5.103350877709E-03 5.159283228267E-02 3.065913572698E-01 -1.514196338622E+03 -5.322894390355E+02 -1.285099517008E+00 3.370108777689E-02 1.317096070557E-01 1.018758418068E-01 -1.274869115453E+03 4.332775917631E+02 6.448878676572E+00 4.881920130302E+01 -1.227385153876E+00 -4.928566611264E-01 3.930089215228E+01 -1.616244334213E-01 -3.746533654604E-01 3.080326875780E+03
 1.142193283033E-02 -5.164255340937E-02 5.981887616778E-02 8.164861607101E-03 -1.479119782849E-02 -4.923737770753E-04 2.879626632369E-02 -8.245782789235E-02 -3.205471872346E-01 -1.043404132573E-03 -3.292671456377E-02 -7.888204418954E-02 -2.546664538298E-03 -9.368180462765E-03 -1.517871148916E-01 2.855294790966E-02 1.191067420974E-02 -4.249958171295E-02 -4.967524458669E-02 4.396825144299E-02 -1.281265961333E-02 -7.459688428089E-03 2.475921990917E-02 7.362092245683E-02 6.972880682031E-02 4.063023538330E-02 2.655638220214E-01 1.127508582769E-02 1.297730768535E-02 1.902379056835E-01 3.040441713564E-03 1.085776722339E-01 2.665061477651E-01 -5.426104677711E+02 -8.709920058423E+02 -5.586011025410E+00 -3.076980588140E-02 -5.594092513828E-02 3.056337248057E-02 4.182494178537E+02 -7.251076501106E+02 -4.675387159362E+00 -8.608874076927E+01 2.090138723223E+00 2.325034403256E-01 7.196143114321E+01 -1.954309316750E-01 -4.089966197466E-01 9.587264102029E+01 2.543341417154E+03
 1.011558339533E-01 -1.392719562992E-01 1.372446081200E-01 -6.349854350536E-02 -1.045362546660E-01 5.429154959694E+00 1.785915879688E-01 -2.640427886859E-01 -6.253168045427E-01 -2.901219318437E-02 -3.173801983220E-02 5.426348632965E-02 -3.389355717714E-03 -8.068315787687E-02 3.622063326545E-01 1.806614378901E-02 2.062810059584E-01 -7.465423501943E-02 -1.171077376487E-01 1.500355017496E-01 2.230908693428E-01 1.095128777066E-01 2.439920526987E-02 -3.005490527226E-01 2.107411062237E-02 1.311112277793E-01 5.993719100848E-01 1.816380176814E-02 1.560586392821E-02 -6.525953794398E-01 -4.208160215820E-01 1.344565362807E-01 -1.027375295656E+01 -1.281873460054E+00 -5.466756979593E+00 -6.915726307548E+01 1.706426049454E-01 -9.102954332576E-02 4.519178168946E+00 6.301803672166E+00 -4.025736427656E+00 -7.683498129713E+01 -6.348448453692E-01 2.981996551019E-01 1.008805560648E+01 -5.585452705817E-03 -4.126614706007E-01 1.032098961099E+01 -5.547581957149E+00 1.757164336551E+01 1.516477456818E+02
 4.207209601967E-01 -2.976768837386E-02 -2.722050291908E-01 -1.227757473563E+03 4.456560363360E+02 4.389577825470E+00 3.884425942850E-01 -1.004949719008E+00 -3.684646852473E-02 9.979221998702E-02 -4.578526810247E-02 1.212073460960E-02 6.448611653624E-02 -3.872449708055E-01 -8.160223102017E-02 4.008583167650E+01 -1.407633555790E-01 -2.647221311300E-01 -5.678309545698E-01 9.235569260815E-02 9.256407898667E-02 -2.004726273462E+01 3.563396801642E+01 4.351438679687E-02 1.792488617426E-01 4.547803459770E-01 -1.960748396297E-02 -8.032262453619E-02 2.393697639616E-01 1.004602192786E-01 9.798792271989E-02 -8.449283304258E-02 -5.089110746158E-02 4.109469498511E-02 3.567702419151E-02 -8.527839294772E-02 -6.624277610829E-02 2.611840400021E-01 2.531703399296E-01 -1.150395087484E+03 -3.955698264922E+02 5.233087355883E+00 -1.419539841229E-01 -6.609671997801E-02 3.953261017774E-02 3.703879160680E+01 -3.684499804756E-02 -4.179779648510E-01 -1.792915116705E+01 -3.268609080606E+01 1.639282259140E-01 2.740075819005E+03
 9.068624481530E-02 -3.404601016397E-02 3.861868667993E-01 4.541885355476E+02 -7.423336848467E+02 6.516940995068E-01 6.385464947471E-03 -8.604143942479E-02 -1.002022657001E-01 6.255128581054E-02 4.761894344166E-02 -1.387615642108E-03 5.635215235812E-02 -6.513297885867E-02 2.180627539605E-02 6.685220786424E+01 -3.128469385630E-01 -3.434312686424E-01 -1.346559098197E-01 -1.839182477793E-02 -4.851422700656E-02 -3.356690560667E+01 5.950653371402E+01 -2.705629926442E-01 3.779705867099E-02 4.412750146471E-02 1.713976121551E-02 -1.199822256024E-01 1.925665628500E-02 1.472983034121E-02 -1.200791317231E-02 8.454406966112E-02 -5.922029011060E-02 -3.303059953934E-02 -6.089806797707E-03 -1.087727777733E-01 1.555985806811E-01 1.155817363868E-01 -1.053052113987E-01 -3.932245361483E+02 -6.741450913317E+02 2.598748758529E+00 -1.619921291199E-02 -4.285517346637E-02 1.425508815098E-02 -6.550635377200E+01 -2.013778386488E-01 3.610279594774E-01 3.158155716230E+01 5.799347142411E+01 -2.017816546143E-01 -6.664844601120E+00 2.803752393120E+03
 -1.506376223830E-01 -8.817502367320E-02 4.020270043964E+00 3.846444699697E+00 1.454994133776E+00 -8.535803648228E+01 -2.215232555324E-01 8.212988203424E-02 -4.809383683614E-01 -9.632817702917E-02 4.315190739051E-02 3.959501074982E+00 -3.055586246318E-03 -4.869262478855E-02 -2.105671636032E+00 -2.622280155698E-01 -1.236904250937E-03 8.505313529632E+00 2.313139380759E-01 -5.638735179639E-02 -9.393105313393E-01 2.485251719422E-01 -7.338819650404E-01 1.079831368397E+01 2.402290095590E-01 1.009737139578E-01 4.101094843968E-01 2.414069603205E-02 5.797498584629E-02 3.277918809275E+00 7.749790852176E-02 -8.160842319353E-02 3.921454779653E+00 -1.613240705912E-01 2.548631101449E-02 1.172138660135E+00 -4.389782891210E-01 -2.071155978873E-01 -9.162248291431E+00 6.068961530704E+00 2.275962090706E+00 -7.968353924494E+01 1.508919396646E-02 -1.831321062403E-01 3.025977026236E+00 -4.305785574161E-01 3.121417527952E-01 6.472339394920E+00 1.739187406177E-01 5.175237260385E-01 8.882367774401E+00 -1.118226502235E+01 -1.200737362038E+01 1.896525346275E+02