#BIOSYM hessian 1
@Type: Hessian Update
@Units
 distance: 	A
 energy: 	Kcal/Mol
#header
@natom 71

#label
C1      C2      C3      C4      C5      C6      C7      C8      C9      C10     C11     C12     C13     C14     C15     C16     C17     C18     C19     C20     C21     C22     C23     C24     C25     C26     C27     C28     C29     C30     C31     C32     C33     C34     C35     C36     C37     C38     C39     C40     C41     C42     C43     C44     C45     C46     C47     C48     H49     H50     H51     H52     H53     H54     H55     H56     H57     H58     H59     H60     H61     H62     H63     O64     H65     O66     H67     C68     O69     O70     H71

#element
C  C  C  C  C  C  C  C  C  C  C  C  C  C  C  C  C  C  C  C  C  C  C  C  C  C  C  C  C  C  C  C  C  C  C  C  C  C  C  C  C  C  C  C  C  C  C  C  H  H  H  H  H  H  H  H  H  H  H  H  H  H  H  O  H  O  H  C  O  O  H 

#matrix
213
 2.240909274884E+03
 1.634802593442E-01 2.239838579298E+03
 -4.962138809637E-03 7.205774635861E-02 2.240841676818E+03
 1.281621734713E-01 -2.320753550290E-01 1.708917307280E-02 2.241117881138E+03
 -3.384230907653E-02 -6.851840381536E-01 3.880527350507E-02 -2.455437263983E-01 2.240775498164E+03
 2.044311605440E-02 -2.409967573267E-01 1.598991251548E-02 -6.656300390139E-02 -1.082182703417E-01 2.240796409493E+03
 -1.570129457248E-01 3.450828149853E-01 -3.268468992398E-02 -8.129646058286E-02 2.536132847679E-01 8.070978296124E-02 2.240971582682E+03
 6.367480083741E-02 1.042865534798E+00 -5.284831870416E-02 3.658580183910E-01 3.899129283958E-01 2.110017714161E-01 -6.671788557585E-01 2.240471745806E+03
 -1.676833329137E-03 3.403018159979E-02 -2.071437573360E-03 8.765713817460E-03 1.585349095972E-02 7.186569620205E-03 -1.495003660060E-02 -2.404855775891E-02 2.240845172728E+03
 1.890758211356E-02 9.797046830437E-01 -5.599244945150E-02 5.428973375079E-01 6.995437034423E-01 2.480567224108E-01 -8.246758418178E-01 -4.505269477521E-01 -2.785193775459E-02 2.240888623509E+03
 5.109636007837E-01 -2.871203892561E+00 2.145119359316E-01 -2.779198485747E-01 -9.798284318601E-01 -5.300704627631E-01 -5.071078875553E-03 3.488018389300E+00 9.246650220514E-02 4.963501752021E+00 2.239493762052E+03
 4.160738926363E-03 -1.848505083568E-01 1.135038209235E-02 -6.290076268575E-02 -6.799892694543E-02 -3.631605978538E-02 7.810161930689E-02 1.299650736587E-01 5.028015916294E-03 1.603008504245E-01 -4.361317648983E-01 2.240821222433E+03
 -7.126729912998E-01 2.756338693045E+00 -2.020076672284E-01 -1.838206824685E-01 2.178670780733E+00 6.983099537496E-01 -5.180831938413E-01 -3.277073446273E+00 -9.755339113740E-02 -3.505401783264E+00 7.011409047313E+00 5.699138050740E-01 2.235389717542E+03
 3.149728190823E-01 -1.927805939551E+00 1.495890596571E-01 -1.724760017927E-01 -3.292451143131E-02 -2.569786558273E-01 -4.871978869947E-01 2.578897711240E+00 5.905543480355E-02 4.416736163167E+00 2.879887432932E+00 -2.272616392644E-01 4.741659880040E+00 2.247553977912E+03
 -2.190922777001E-02 -4.071831042479E-02 6.430259689185E-05 -2.715230477316E-02 -5.290075803243E-03 -7.709339986841E-03 6.678683449975E-02 -5.239779545718E-02 7.046530493836E-05 -6.235912761306E-02 -2.885293565145E-01 -1.617573391980E-03 1.675042135448E-01 -2.858295857332E-01 2.240858847419E+03
 -2.890073461182E-01 2.132593525300E-01 -2.247228346784E-02 -5.142711010856E-01 7.126014210013E-01 1.312986651086E-01 8.386859599187E-02 -6.028496288133E-01 -1.476766412531E-02 -4.357846056167E-01 1.569294434257E+00 1.279884103700E-01 9.126414078005E-01 1.984922201770E+00 3.286480394711E-02 2.242296426032E+03
 1.584990849076E-01 -4.917840771642E-01 3.920298123176E-02 8.551096614761E-02 -3.452527754015E-01 -1.160935804170E-01 -2.702633546033E-02 7.077502527499E-01 1.828157758558E-02 8.741655392508E-01 -6.204080003667E-01 -1.013795256068E-01 8.390542114875E-01 -8.269678894394E-02 -5.495744848939E-02 -1.376661284640E-01 2.240787303527E+03
 1.982697374980E-02 -1.163049061618E-01 8.845664980375E-03 -2.797969330704E-02 -5.547208195068E-02 -2.394849771495E-02 1.648912575693E-02 1.387763581884E-01 3.937522638290E-03 1.640980985911E-01 -1.650253435243E-01 -1.911765943642E-02 3.227217025039E-01 -1.142271483036E-02 -9.763768897161E-03 6.573001823682E-02 -4.180748271235E-02 2.240837247026E+03
 1.491575547848E-01 -7.289690979967E-02 6.419291376464E-03 3.256036819930E-01 -4.535554098279E-01 -7.677696249585E-02 2.575565842504E-02 2.016746042472E-01 6.304912881861E-03 6.645705421546E-03 -1.376379976013E+00 -7.103604023129E-02 -7.078850150413E-01 -1.837162573049E+00 5.182618501056E-03 -1.012960739195E+00 5.097965607076E-02 -4.981753435582E-02 2.241600245090E+03
 1.990426766003E-01 -1.058724729018E+00 9.390005692518E-02 -4.436443933385E-01 -1.746742542220E-01 -1.623180702278E-01 -1.844595307367E-01 1.647669028351E+00 3.833241837242E-02 2.216420359453E+00 9.185836881676E-01 -1.435612198882E-01 3.408822262701E+00 3.083062421500E+00 -1.792308433004E-01 1.475636513826E+00 -2.261019970223E-01 -6.122483328295E-03 -1.263522298972E+00 2.242821767324E+03
 3.664456923363E-02 -1.227414401762E-01 1.187500402117E-02 -3.403271660791E-02 -3.667237815056E-02 -2.078027283806E-02 -4.167601835762E-02 2.271852972781E-01 4.966985017683E-03 2.950490889002E-01 1.488611794046E-01 -2.000835691569E-02 3.467134567272E-01 4.001688482591E-01 -2.575414215384E-02 1.350436153033E-01 -9.694359735244E-03 2.074667707505E-04 -1.297954283853E-01 2.498707764785E-01 2.240879757971E+03
 -4.938682089425E-01 1.521051490663E+00 -1.226554598621E-01 -2.399293540504E-01 1.056957947237E+00 3.569218473139E-01 1.017548982964E-01 -2.225504248534E+00 -5.700323173324E-02 -2.741069820458E+00 1.801003872459E+00 3.129349028621E-01 -2.652964355425E+00 9.006569617025E-02 1.767833458502E-01 3.610789199424E-01 1.790039561918E-01 1.248128451016E-01 -1.006316971963E-01 5.652912789497E-01 1.359185014925E-02 2.240308930518E+03
 9.079889695256E-02 -2.283486348188E+00 1.263253214225E-01 -8.074629710406E-01 -2.131512162890E+00 -6.541168522958E-01 2.011911708196E+00 1.039004538139E+00 6.745950286027E-02 -3.546448239536E-01 -1.342707462961E+01 -4.406369446265E-01 6.980716861078E+00 -1.294134490746E+01 1.834658674376E-01 -3.687032261308E-01 -1.970206668345E+00 -4.479698966747E-01 1.051212362152E+00 -7.046043878844E+00 -8.915729171781E-01 6.273436297609E+00 2.243818765609E+03
 -1.546389888846E-01 6.670450537072E-01 -5.830743666610E-02 1.880959369218E-01 2.309204557683E-01 1.206476669674E-01 8.564528728261E-02 -1.033393243763E+00 -2.482688646435E-02 -1.316237875413E+00 -9.689232640417E-02 1.061846740956E-01 -1.907388125777E+00 -1.274111784169E+00 1.031569951791E-01 -6.234778970967E-01 1.379703876066E-01 1.979226883059E-02 5.552615188138E-01 -7.992751970128E-01 -1.083922598831E-01 -3.631206650084E-01 3.901477573621E+00 2.241149297838E+03
 -2.178714173262E-01 1.136610790030E+00 -8.367302846892E-02 1.900038754039E-01 7.594673892890E-01 2.682108916830E-01 -2.905392186395E-01 -1.279177653915E+00 -3.921190600618E-02 -1.307699832483E+00 2.785566594698E+00 2.114727352804E-01 -2.926022906646E+00 1.647939975162E+00 6.529307264750E-02 -1.883765964516E-01 4.716442968258E-01 1.209876458314E-01 9.040596387012E-02 9.644333350278E-01 1.043225457816E-01 -1.452521447281E+00 3.089739997795E+00 -6.220578736248E-01 2.239605623152E+03
 2.740428868394E-01 1.539702356244E-02 3.771567410524E-02 -8.143217511122E-02 5.014209938804E-03 1.991621269560E-02 -6.981483966893E-01 1.181488833212E+00 1.472550992781E-02 1.363672557904E+00 3.161720507551E+00 -3.290895689542E-02 4.450194073462E-02 4.044869530417E+00 -2.009869073550E-01 5.396402657558E-01 3.800148390289E-01 1.018409859545E-01 -7.424948531757E-01 2.811562167783E+00 3.787700934963E-01 -1.317511672454E+00 -4.589683859420E+00 -1.440126560626E+00 -2.729853933584E-01 2.244209382777E+03
 4.920725678103E-02 -2.690939321090E-01 2.108645820043E-02 -6.606636421131E-02 -1.191641244794E-01 -5.372204344596E-02 2.160149983067E-02 3.410704989386E-01 9.275781428193E-03 4.143848252523E-01 -2.833625438801E-01 -4.374691817126E-02 7.492751285552E-01 9.908715831414E-02 -2.672570271977E-02 1.738928314143E-01 -8.687396192712E-02 -1.768192071331E-02 -1.393587704157E-01 6.106964667314E-02 1.012621644561E-02 2.550222651655E-01 -1.158004207370E+00 8.151491715444E-03 2.731932398201E-01 3.106585830269E-01 2.240813716451E+03
 -3.021559711887E-01 2.216352835919E+00 -1.522490835069E-01 3.144908043506E-01 1.034776717962E+00 4.588322700404E-01 -4.796637830158E-01 -2.209151529855E+00 -6.847308265282E-02 -2.809737206819E+00 3.900847215443E+00 3.524988169107E-01 -5.663382782785E+00 1.325434998080E+00 1.165573028990E-01 -8.028333502336E-01 8.155709835243E-01 2.032311779820E-01 5.306253503864E-01 1.196175811766E+00 1.334213749126E-01 -2.503942921464E+00 7.071727263048E+00 -8.977533448396E-01 -2.354935586160E+00 -6.133031188817E-01 4.434075664995E-01 2.236966078370E+03
 -1.518074691806E+00 -5.249389698097E+00 2.163744286196E-01 -4.933496347047E+00 -1.176734708507E+00 -9.848876163980E-01 5.783044702763E+00 -7.379052393891E-01 9.502429050678E-02 -2.546023984597E+00 -2.534172521051E+01 -4.228194762841E-01 2.441502505766E+01 -2.081558563898E+01 6.788060239315E-01 7.819069480634E+00 -5.976397993592E+00 -8.133028789743E-01 -3.408427776811E+00 -9.828201412123E+00 -1.553815254189E+00 1.860027308036E+01 3.285671865662E+00 6.643730638867E+00 7.461366289003E+00 -9.182720571809E+00 -2.062158737649E+00 1.386451381066E+01 2.292067383625E+03
 -2.962677740999E-01 1.333892199948E+00 -1.151438253329E-01 3.825471811973E-01 4.585254675408E-01 2.414670742200E-01 1.411349679336E-01 -2.018451683553E+00 -4.904868458746E-02 -2.572302059535E+00 -6.937774629561E-02 2.103663246028E-01 -3.835131432197E+00 -2.394131230587E+00 1.983391325686E-01 -1.243874846238E+00 2.953533100016E-01 4.319037346435E-02 1.093480230402E+00 -1.502124458520E+00 -2.031339947702E-01 -7.907973619341E-01 7.624526126223E+00 5.550299500391E-01 -1.255382251341E+00 -2.758740974169E+00 2.736271886257E-02 -1.821595498199E+00 1.283432996177E+01 2.241858196734E+03
 -1.617254344285E-02 -1.476498315615E-01 8.120751062299E-03 -9.731210823970E-02 -4.392773920179E-02 -2.815943893543E-02 1.038999672997E-01 5.771943645947E-02 3.560222470706E-03 4.527180952998E-02 -4.915918130210E-01 -1.635733876434E-02 5.761692595017E-01 -3.321180005206E-01 6.207398622364E-03 1.706953330639E-01 -1.205185604698E-01 -1.773522503412E-02 -8.771148697617E-02 -1.570975420477E-01 -2.473084814188E-02 3.720719210481E-01 -1.905459540656E-01 1.164543346104E-01 1.863106478053E-01 -9.581381685890E-02 -4.235842429193E-02 3.296683077087E-01 4.414686497423E-01 2.273663216156E-01 2.240844713426E+03
 1.929832081648E-02 1.064885883222E-01 -5.860650908266E-03 8.749485650202E-02 1.253913057192E-03 1.573766870815E-02 -6.776980573335E-02 -3.817460605464E-02 -2.316529628263E-03 -5.200879151196E-02 2.375271568204E-01 7.800081703226E-03 -4.626039770461E-01 8.055061399349E-02 -2.743185935895E-03 -1.900430342866E-01 8.639041636327E-02 9.178980343539E-03 1.159929749814E-01 1.565386266850E-02 7.178226268327E-03 -2.625145313051E-01 2.582280925810E-01 -3.999562426985E-02 -1.306435813506E-01 2.955425411713E-03 2.007407122172E-02 -1.990185749552E-01 -4.199613688834E-01 -7.789564549377E-02 -2.960581191618E-03 2.240855039397E+03
 -2.643531737943E-02 2.304013359166E-01 -1.524961683973E-02 4.693878904669E-02 1.310222490602E-01 5.167332858125E-02 -8.368394357875E-02 -2.041285211425E-01 -7.086140609736E-03 -2.195929177986E-01 6.132481237682E-01 3.833447987153E-02 -6.225770361471E-01 3.909855297987E-01 5.685125830310E-03 -6.312191249761E-02 1.111377503077E-01 2.622932603230E-02 2.428562123385E-02 2.459814908423E-01 2.978819220598E-02 -3.456620245195E-01 5.137352222635E-01 -1.562251124112E-01 -2.597550367586E-01 4.366944217398E-02 6.104596283099E-02 -4.732597386272E-01 1.036602798092E+00 -3.108162591077E-01 3.060747616401E-02 -2.133536027810E-02 2.240796122394E+03
 9.538425790893E-02 -1.816142590685E-01 1.930751246026E-02 3.822799294333E-02 -1.145671522097E-01 -3.863731249371E-02 -1.149557392303E-01 4.178374645595E-01 8.534364522604E-03 5.350656108087E-01 2.725285991519E-01 -4.085220433484E-02 2.798902987388E-01 6.013007992427E-01 -4.797558055667E-02 1.253950941613E-02 4.251080394282E-02 -6.605443495908E-04 -7.919917665456E-02 3.120313486993E-01 4.988481178782E-02 -1.508275246681E-01 -1.408383214536E+00 -1.532800127241E-01 1.335542339573E-01 5.939603753144E-01 1.273463997739E-02 1.846652794468E-01 -3.613054589409E+00 -2.824926913568E-01 -5.949697662334E-02 3.335365241839E-02 4.578299163184E-02 2.240948664024E+03
 5.961040070413E-02 -7.219000898607E-02 6.756103473500E-03 9.497509588750E-02 -1.298153359606E-01 -2.821251577954E-02 -2.816877607625E-02 1.584241709230E-01 3.734935502580E-03 1.649592946281E-01 -2.160212688809E-01 -2.738588444367E-02 -9.499278721847E-02 -2.230252858227E-01 -1.170789449461E-02 -2.340551825330E-01 2.775848510634E-02 -1.177127497452E-02 1.537546520426E-01 -2.073977301567E-01 -1.639687304218E-02 -7.704449576565E-02 -1.778047432812E-01 8.664019845087E-02 6.087984771740E-02 -1.945479193662E-02 -2.878747299825E-02 1.621264324145E-01 -1.857687717899E+00 1.758361985786E-01 -3.782813392293E-02 3.663937475508E-02 1.818744527925E-02 1.117393476226E-02 2.240886145771E+03
 1.674552695047E-03 -1.442550432356E-02 1.081643994958E-03 -5.470678513580E-03 -5.216376406521E-03 -2.735344131530E-03 2.613881149562E-03 1.614419314688E-02 4.686896545777E-04 1.945330258847E-02 -1.802001366389E-02 -2.105886876346E-03 4.526007241796E-02 2.969715904425E-03 -1.144833700942E-03 1.307705170057E-02 -6.077647877737E-03 -9.752933825022E-04 -9.546683217164E-03 3.264000256026E-03 3.762777691062E-04 1.801314469266E-02 -5.804384250755E-02 9.206281986338E-04 1.521843850208E-02 1.463859658474E-02 -1.831988566245E-03 2.450903767927E-02 -7.852785559895E-02 2.303427124691E-03 -1.743472093864E-03 5.959811240224E-04 3.228297738551E-03 -1.925023729103E-04 -2.296430368524E-03 2.240846030724E+03
 1.482745437145E-01 1.726251677474E-02 9.038213266663E-03 2.408209247729E-01 -1.333802869842E-01 -1.192656316178E-02 -2.665500138456E-01 3.802249000934E-01 4.652044598616E-03 4.854521429139E-01 7.601293550049E-01 -3.053672367525E-02 -6.861295620059E-01 7.820824135443E-01 -5.750248839019E-02 -4.184196170877E-01 2.302733912640E-01 1.655093677301E-02 1.817168371848E-01 3.271665589290E-01 6.457635889874E-02 -7.209043420227E-01 -9.823231562914E-01 -2.301321890437E-01 -1.205365425959E-01 6.188287759355E-01 5.062515911338E-02 -2.014570252420E-01 -4.973000122878E+00 -4.304112493005E-01 -7.473760893238E-02 5.928910635673E-02 6.348672545093E-03 1.789100512867E-01 9.453550849461E-02 6.675490456378E-04 2.241172427314E+03
 -3.168614386888E-02 4.706474501755E-01 -2.908197067594E-02 7.530475845471E-02 1.713396456563E-01 9.151305402857E-02 -1.413928820452E-01 -3.675201910158E-01 -1.286520033115E-02 -5.265294455873E-01 8.767188757423E-01 6.591416818526E-02 -1.240722875168E+00 3.390599645394E-01 1.143446209140E-02 -2.145451374809E-01 1.953528925963E-01 4.552064023500E-02 1.250122588461E-01 3.325746481357E-01 4.229025959904E-02 -6.061826865154E-01 1.328337558108E+00 -2.380833129800E-01 -5.122954746933E-01 4.487623964476E-02 1.024214991694E-01 -7.988325650254E-01 2.147016078926E+00 -4.749518657991E-01 5.764973536419E-02 -3.301281097354E-02 -9.500544266009E-02 6.950924598496E-02 4.387688105163E-02 5.387872629783E-03 8.627905964827E-03 2.240696806562E+03
 1.160495311065E-03 -7.658603505112E-03 5.179110671970E-04 -8.789405940814E-04 -4.682010354573E-03 -1.758173237634E-03 2.338534588820E-03 7.347982586859E-03 2.428590912682E-04 8.149293724410E-03 -1.947713589461E-02 -1.342380784229E-03 1.892897866391E-02 -1.228977474741E-02 -2.646368909151E-04 8.255511130154E-04 -3.227116620420E-03 -8.673087080897E-04 -7.668041315774E-05 -8.347012755396E-03 -9.598174091937E-04 1.007714588292E-02 -1.816058468369E-02 5.121562726389E-03 8.453089506488E-03 -1.093956002422E-03 -2.012624579885E-03 1.541779584277E-02 -4.438415403286E-02 1.022202608648E-02 -1.182642029571E-03 8.649520386261E-04 1.666158314920E-03 -1.269058860209E-03 -3.500985098320E-04 -1.113826358045E-04 4.224045100070E-04 3.154455298125E-03 2.240846066654E+03
 1.105903431068E-01 -7.247744455956E-01 4.496258345737E-02 -3.795151742825E-02 -6.204705889079E-01 -1.952578811852E-01 3.754367591364E-01 5.680301381763E-01 2.285261599843E-02 4.318797718252E-01 -3.010111647558E+00 -1.447736662007E-01 1.667573035850E+00 -2.667707062348E+00 1.068148928588E-02 -2.810643776470E-01 -3.929314787959E-01 -1.154306817796E-01 3.312813011926E-01 -1.661286105581E+00 -1.969387001624E-01 1.260251298625E+00 -3.994147365712E-01 9.074273173254E-01 8.668241506772E-01 -8.534373562851E-01 -2.887109654127E-01 1.816051492027E+00 -3.058058164561E+00 1.786732091392E+00 -1.131536976164E-01 1.108624554056E-01 1.592112672058E-01 -2.606943685258E-01 3.783362128139E-03 -1.578486330712E-02 -4.268362871480E-02 3.569143903063E-01 -5.117805351825E-03 2.240609336193E+03
 8.230719735434E-03 8.028018682088E-01 -5.026393453058E-02 4.103648414527E-01 2.832478032166E-01 1.563520542835E-01 -3.990690885469E-01 -5.463019254034E-01 -2.212316348949E-02 -5.735286639784E-01 2.085103654932E+00 1.035254973949E-01 -2.813330172889E+00 1.137688900620E+00 3.349540712568E-03 -7.712008709464E-01 5.214512781946E-01 8.276119662289E-02 4.408628274437E-01 5.359832006572E-01 8.255784638060E-02 -1.598264078587E+00 1.812819224670E+00 -4.422556749773E-01 -9.473115499679E-01 6.171462518076E-02 1.884206592835E-01 -1.640102674365E+00 4.901853614791E-01 -8.747963021516E-01 4.843076766598E-02 -1.117486627818E-02 -1.714633991368E-01 2.052399079067E-01 1.625492433516E-01 8.323064777957E-03 2.182994775585E-01 -3.112161705787E-01 6.268056256131E-03 6.878397767637E-01 2.240476539792E+03
 8.502941431450E-03 -4.644990148850E-02 3.670626466389E-03 -1.266531952655E-02 -2.115623502725E-02 -9.359308631477E-03 4.263332237096E-03 5.934428038854E-02 1.617878039882E-03 7.030207274305E-02 -5.241201893702E-02 -7.611476174992E-03 1.322798624032E-01 1.353331072216E-02 -4.631137337415E-03 3.125256818186E-02 -1.578649808842E-02 -3.085448158656E-03 -2.474438400508E-02 1.065696481985E-02 1.734074685668E-03 4.635442250417E-02 -1.981324091869E-01 1.511645406798E-03 4.746158203151E-02 5.470444902745E-02 -5.671517699054E-03 7.847319250760E-02 -3.470407471153E-01 4.937543548993E-03 -7.187152124041E-03 3.359756828868E-03 1.063819315156E-02 1.936838437745E-03 -5.274426174431E-03 -3.159225580295E-04 8.160049999540E-03 1.820763678839E-02 -3.530682761669E-04 -5.027535538563E-02 3.217751422025E-02 2.240845134732E+03
 1.102417573274E-02 -8.535264377263E-02 7.768467466370E-03 -3.330600826156E-02 4.616045151982E-02 -3.696223206356E-03 -5.568030712632E-02 1.453920918177E-01 2.665723411403E-03 2.716007483206E-01 4.127252875752E-01 -4.959501255725E-03 2.764412823849E-01 6.744288029387E-01 -2.159775762666E-02 2.034533301915E-01 1.095148230333E-02 8.220175413831E-03 -1.830873788976E-01 3.726178555484E-01 4.581504168701E-02 -5.176287492523E-02 -9.067923672851E-01 -1.685751820986E-01 5.844814271505E-02 3.826729216909E-01 3.015979568031E-02 -2.353699876656E-02 -1.082315645135E+00 -3.236212516625E-01 -1.207735768049E-02 -6.324131257885E-03 1.740967353729E-02 6.044584395265E-02 -2.394232844895E-02 1.589148310611E-03 4.745152988374E-02 2.242512792223E-03 -5.852681027913E-04 -1.886358635723E-01 1.750683062759E-02 5.086882297415E-03 2.240911150938E+03
 -4.809264250828E-02 2.400094553268E-03 -1.923716436604E-03 -9.910635732569E-02 9.428955406321E-02 1.336681285943E-02 4.064178852373E-02 -8.578159927675E-02 -1.541943869402E-03 -7.156118263710E-02 9.539448880051E-02 1.573347064855E-02 2.585005309314E-01 1.803268162708E-01 7.687505786680E-03 2.477072726975E-01 -5.014743497018E-02 5.244798751652E-03 -1.631028449347E-01 1.638549895533E-01 1.185377620767E-02 1.461800980816E-01 -4.658022601108E-02 -5.670898599862E-02 1.217122155111E-02 3.676602358360E-02 1.445821253253E-02 -4.135364902102E-02 1.351643357807E+00 -1.150537807634E-01 2.619629492654E-02 -2.905932348635E-02 -3.297050973218E-03 -1.579418438653E-02 -4.296570150301E-02 1.471088232031E-03 -8.380635027449E-02 -1.873008877863E-02 -1.214715615509E-04 -5.818450004593E-02 -1.061731681390E-01 2.721883275686E-03 2.399635935396E-02 2.240888366898E+03
 1.630399750496E-02 -1.296694675556E-01 8.773961803293E-03 -2.619619172711E-02 -7.305747432695E-02 -2.888698791443E-02 4.287551732001E-02 1.210642323915E-01 4.058909718079E-03 1.321512264391E-01 -3.245257105600E-01 -2.168625013007E-02 3.493314081173E-01 -1.940593196273E-01 -4.303455350549E-03 3.833084582711E-02 -5.996872186651E-02 -1.415555985466E-02 -1.779696534728E-02 -1.222539924277E-01 -1.458687252561E-02 1.858194861081E-01 -3.168167988052E-01 7.959443699568E-02 1.445482747302E-01 -6.272025824950E-03 -3.251983489339E-02 2.614710399791E-01 -6.390311423553E-01 1.589485663287E-01 -1.780547455889E-02 1.203713966202E-02 2.831871126967E-02 -2.226071771958E-02 -1.023273476801E-02 -1.733195851231E-03 1.478311141387E-04 5.330612735729E-02 -9.411408315080E-04 -9.432249468389E-02 9.689838047723E-02 -5.669412254501E-03 -7.479923069696E-03 2.008846779772E-03 2.240830182406E+03
 4.057887911716E-02 -3.532942199398E-01 1.993023531181E-02 -2.857481767323E-02 -3.378740506567E-01 -1.016108389444E-01 2.484806897772E-01 2.071733479058E-01 1.065657178630E-02 7.275537049109E-02 -1.849338533107E+00 -7.238389813644E-02 8.391910426849E-01 -1.777198147246E+00 2.007763392155E-02 -1.958397531246E-01 -2.357492242021E-01 -6.661215478870E-02 2.362108270289E-01 -1.072890128573E+00 -1.302790625653E-01 7.614481634986E-01 2.548812791021E-01 5.762758136520E-01 4.499248500168E-01 -6.732659736473E-01 -1.714633259927E-01 9.980139999406E-01 -7.205051962357E-01 1.129108078560E+00 -4.845658217824E-02 5.631951412758E-02 7.717752081912E-02 -1.810481525966E-01 3.208268666243E-03 -9.154527678221E-03 -7.291453266756E-02 1.887132328924E-01 -2.528121408818E-03 -4.395113120055E-02 3.397775958872E-01 -2.973072752427E-02 -1.321823039190E-01 -3.326679614464E-02 -4.726813407958E-02 2.240884444213E+03
 -1.252549026203E-01 5.078675968250E-01 -3.770963486055E-02 1.030365863638E-02 4.064680289515E-01 1.295247078914E-01 -1.165539773717E-01 -6.028144129003E-01 -1.820800906626E-02 -6.010844888091E-01 1.384726458524E+00 1.047237485360E-01 -1.112463063529E+00 9.616301932064E-01 2.976815569193E-02 1.095118900631E-01 1.824741515419E-01 6.010779471181E-02 -9.642813399190E-02 6.163563748468E-01 6.420867426697E-02 -5.715520375860E-01 1.230114629843E+00 -3.528751337988E-01 -5.496856741597E-01 -1.305912592761E-02 1.395805070143E-01 -1.092398909504E+00 4.081588039059E+00 -7.090078570825E-01 9.964229230849E-02 -7.919868247440E-02 -1.169006058710E-01 6.228813288383E-02 -4.665524891282E-03 8.195357930429E-03 -9.965949792476E-02 -2.403754957820E-01 3.645346918388E-03 3.226590876552E-01 -4.972514776397E-01 2.442094398978E-02 5.269466771089E-02 3.705287496386E-02 6.561549140860E-02 1.596868147121E-01 2.240628205659E+03
 -1.115522106661E-02 7.221827533623E-02 -5.521597250227E-03 2.042928893362E-02 2.887076841635E-02 1.401886064761E-02 -8.308829363898E-03 -8.647535914901E-02 -2.409916852803E-03 -1.066775875919E-01 7.830724075186E-02 1.116911235752E-02 -2.086343333091E-01 -2.541456536756E-02 6.540000655979E-03 -5.323349670687E-02 2.546444953957E-02 4.769643675178E-03 4.101154747792E-02 -1.616250344958E-02 -2.370056082902E-03 -7.510562090031E-02 3.040428470428E-01 -3.137328917440E-03 -7.420496443711E-02 -7.785103276511E-02 8.821579613629E-03 -1.184739700952E-01 4.952883074439E-01 -8.956538224215E-03 1.038806164300E-02 -4.487050262433E-03 -1.618014812243E-02 -1.836575757293E-03 8.984953045182E-03 4.732573528703E-04 -9.878876424309E-03 -2.669491477784E-02 5.408814201340E-04 7.763109188655E-02 -4.719012306028E-02 1.539836479365E-03 -8.153738749792E-03 -5.100192803862E-03 8.643737884163E-03 4.577381409854E-02 -3.860794461046E-02 2.240843767877E+03
 2.498854712819E-03 -6.550102034083E-01 4.515586555567E-02 -3.376538719355E-01 -4.716649824055E-02 -9.736068761375E-02 1.391439477745E-01 5.923751068672E-01 1.813955951440E-02 8.747052885437E-01 -3.866594328837E-01 -6.739608636188E-02 2.314774673930E+00 7.351634246128E-01 -4.280416747239E-02 9.409581725776E-01 -3.040216493479E-01 -3.180251278438E-02 -6.780478127390E-01 4.702112943420E-01 4.539502590808E-02 8.936614944357E-01 -2.932307169730E+00 -8.762161699553E-02 6.912722630220E-01 7.332599843574E-01 -4.874085069022E-02 9.209043785477E-01 -2.100634069730E+00 -1.545716173496E-01 -4.617546046077E-02 -1.410143484431E-02 1.368719054592E-01 -6.476454821957E-03 -1.574153705718E-01 -1.412633912480E-03 -5.918054117041E-02 1.840033608112E-01 -4.964224635197E-03 -8.080236110851E-01 2.281154044788E-01 -8.413536775407E-03 1.273664145710E-01 1.236761433142E-01 -7.259523889700E-02 -4.789593540658E-01 4.152370231468E-01 1.057046172056E-02 2.241000367608E+03
 -1.008954613573E-01 2.768615660145E-01 -2.567920878499E-02 -4.146356628578E-02 7.350899943086E-02 4.513833356119E-02 1.517949443883E-01 -5.210484376202E-01 -1.069923133988E-02 -7.872848674781E-01 -5.791053898516E-01 4.656729093728E-02 -4.942076082639E-01 -1.131668890726E+00 6.166054401349E-02 -1.438065418989E-01 -5.318082942466E-02 -2.150575959644E-03 1.996650397651E-01 -5.326436517496E-01 -7.705880595038E-02 1.923804601659E-01 2.164112175880E+00 2.490033872519E-01 -2.068434254886E-01 -8.050986497398E-01 -2.688567221845E-02 -1.746646535090E-01 4.659011100574E+00 4.656167081220E-01 7.392918857914E-02 -3.301767451691E-02 -6.173944486731E-02 -1.422024791819E-01 2.027790135117E-03 -4.463439922600E-04 -2.197004440314E-01 -6.578279526400E-02 1.755376790686E-03 4.037651930391E-01 -2.453209012970E-01 -4.046269676125E-03 -1.077395526866E-01 2.284749213988E-03 2.976220641063E-02 2.808226286699E-01 -1.097672998636E-01 5.740144235228E-03 -6.976865463193E-02 2.241070190411E+03
 -9.859130417164E-03 7.903315353562E-02 -5.422277977172E-03 1.771525731587E-02 4.254174485026E-02 1.727735078561E-02 -2.461803641019E-02 -7.568872971523E-02 -2.486440669264E-03 -8.387397794573E-02 1.852623058977E-01 1.300910812614E-02 -2.172829625874E-01 1.012684384366E-01 3.088576782756E-03 -2.940717731649E-02 3.612184692775E-02 8.211750620610E-03 1.605548539678E-02 6.283397153226E-02 7.502940237726E-03 -1.113586017404E-01 2.089424219573E-01 -4.301311456712E-02 -8.749718954623E-02 -6.848718813825E-03 1.858305652690E-02 -1.562025081370E-01 3.951445132856E-01 -8.621840703613E-02 1.069683947485E-02 -6.828593345730E-03 -1.731686736669E-02 1.197365604830E-02 7.029677397951E-03 9.830425177222E-04 -5.731063187167E-04 -3.212193820948E-02 5.778001310263E-04 6.115365753808E-02 -5.738730336496E-02 3.235332208685E-03 2.883682711126E-03 -2.075789825525E-03 9.686261137619E-03 3.151026339684E-02 -4.060206449926E-02 -4.931472981766E-03 3.965673249362E-02 -1.552482218368E-02 2.240840279198E+03
 -1.272143111450E-01 -3.662843792529E-01 3.761842923734E-03 -2.004906965057E-01 -3.475407428700E-01 -1.137888343895E-01 6.887625172048E-01 -3.819113748589E-01 4.404209555104E-03 -7.913958168198E-01 -3.784366731025E+00 -5.316423598525E-02 1.346906924062E+00 -4.097920854090E+00 1.237261240689E-01 -1.549575131053E-01 -5.534507703633E-01 -1.185349555899E-01 4.177105933302E-01 -2.362353579031E+00 -3.141149277434E-01 1.796358809671E+00 2.704275536559E+00 1.274962593684E+00 6.372380236879E-01 -2.208354457222E+00 -3.277315964160E-01 1.511968244468E+00 5.775327918536E+00 2.464992474180E+00 3.050808404445E-02 2.373771749701E-02 6.612024470115E-02 -5.200706844977E-01 -5.162002754233E-02 -1.543995284319E-02 -5.054628227025E-01 2.167781760855E-01 -2.745180531097E-03 2.885031574915E-01 2.025345980239E-01 -5.625630483520E-02 -3.214854604474E-01 2.834783867591E-03 -4.998343029096E-02 3.349583473196E-01 2.321672144603E-01 8.374206186022E-02 -7.661391661968E-01 7.548049862676E-01 3.734368217833E-02 2.242321513051E+03
 -5.513948390664E-01 6.156326377525E-01 -6.576839790205E-02 -7.508423689190E-01 1.063192933462E+00 2.305272763125E-01 3.863956064677E-01 -1.591429885650E+00 -3.468932802599E-02 -1.704481846521E+00 1.053618786087E+00 2.346406625325E-01 6.835139957913E-01 8.628505621516E-01 1.435378697612E-01 1.761697692102E+00 -3.045689486658E-01 7.449616567480E-02 -1.065869210034E+00 1.040385125613E+00 4.612690757986E-02 9.036946006829E-01 2.632856023863E+00 -3.780058579203E-01 -4.645345863044E-01 -6.340113424428E-01 1.669300108865E-01 -1.220761493569E+00 1.744745047987E+01 -8.055205775252E-01 3.344193480577E-01 -3.009398185229E-01 -1.643992262469E-01 -2.277904322496E-01 -3.183804590795E-01 1.556399438259E-02 -9.160076569976E-01 -3.757513314689E-01 3.309828650363E-03 1.955276338125E-01 -1.357752183519E+00 3.110192937752E-02 1.033332158539E-01 3.396170055148E-01 8.816319911204E-02 1.466218182151E-01 2.519547506238E-02 -5.629222848350E-02 1.117193445085E+00 1.720382991083E-01 -5.762081460892E-02 9.598808085113E-01 2.243563504383E+03
 3.970295345475E-02 -2.714134666413E-01 1.923182796937E-02 -5.591918747932E-02 -1.462516666890E-01 -5.905325500020E-02 6.973865484617E-02 2.810972066449E-01 8.776338828089E-03 3.177522037321E-01 -5.719584514231E-01 -4.544703696051E-02 7.320505488996E-01 -2.694918298819E-01 -1.425169604725E-02 1.009115535078E-01 -1.137696954453E-01 -2.645436061703E-02 -6.225489573716E-02 -1.708493164067E-01 -1.939391676678E-02 3.487196318983E-01 -8.031030557548E-01 1.235656975266E-01 2.946702016946E-01 7.787143434457E-02 -5.851083059644E-02 5.206132754032E-01 -1.578002112423E+00 2.499476406240E-01 -3.943046824824E-02 2.451423115479E-02 6.001780825787E-02 -2.955843287437E-02 -2.253372180944E-02 -3.164307347415E-03 1.655523563825E-02 1.098388922597E-01 -1.984170249761E-03 -2.223372184538E-01 2.018119081439E-01 -1.021080531276E-02 -3.359613852739E-03 6.092196057308E-03 -3.325926615834E-02 -1.188778600852E-01 1.374106243503E-01 1.564173000733E-02 -1.262178528072E-01 3.726572611799E-02 1.989886576490E-02 -1.680294252105E-01 1.718503523190E-01 2.240779310833E+03