#BIOSYM hessian 1
@Type: Hessian Update
@Units
 distance: 	A
 energy: 	Kcal/Mol
#header
@natom 67

#label
C1      C2      C3      C4      C5      C6      C7      C8      C9      C10     C11     C12     C13     C14     C15     C16     C17     C18     C19     C20     C21     C22     C23     H24     C25     C26     C27     C28     C29     C30     C31     C32     C33     C34     C35     C36     C37     C38     C39     C40     C41     C42     C43     C44     C45     C46     C47     C48     C49     H50     H51     O52     H53     H54     H55     H56     H57     H58     H59     H60     H61     H62     H63     H64     H65     H66     H67

#element
C  C  C  C  C  C  C  C  C  C  C  C  C  C  C  C  C  C  C  C  C  C  C  H  C  C  C  C  C  C  C  C  C  C  C  C  C  C  C  C  C  C  C  C  C  C  C  C  C  H  H  O  H  H  H  H  H  H  H  H  H  H  H  H  H  H  H 

#matrix
201
 2.777517609470E+03
 -2.548769880710E+01 2.818420636592E+03
 0.000000000000E+00 0.000000000000E+00 0.000000000000E+00
 3.774774531588E+01 6.620434116918E+01 0.000000000000E+00 2.791466992275E+03
 -2.471418058860E+00 -1.883152183371E+00 0.000000000000E+00 -2.284774331417E+01 2.766119272379E+03
 0.000000000000E+00 0.000000000000E+00 0.000000000000E+00 0.000000000000E+00 0.000000000000E+00 0.000000000000E+00
 -1.916519611229E+01 3.576028517742E+01 0.000000000000E+00 5.347824000710E-01 9.777163144883E-01 0.000000000000E+00 2.817291811455E+03
 -4.414836822335E+01 5.880772182238E+01 0.000000000000E+00 -1.063140473795E+00 1.191317667870E+00 0.000000000000E+00 -4.404621443893E+01 2.763622006373E+03
 0.000000000000E+00 0.000000000000E+00 0.000000000000E+00 0.000000000000E+00 0.000000000000E+00 0.000000000000E+00 0.000000000000E+00 0.000000000000E+00 0.000000000000E+00
 2.076583640198E+01 -7.413812375033E+01 0.000000000000E+00 -2.380508149236E+01 3.321217188391E+01 0.000000000000E+00 3.692599293524E+01 2.234872443962E+01 0.000000000000E+00 2.725397405280E+03
 -4.286141734741E+00 -6.152011867316E-01 0.000000000000E+00 -3.383900000033E+01 5.806792864778E+01 0.000000000000E+00 -5.621771406131E-01 -3.989337187916E+00 0.000000000000E+00 -2.154106622080E+01 2.831965835806E+03
 0.000000000000E+00 0.000000000000E+00 0.000000000000E+00 0.000000000000E+00 0.000000000000E+00 0.000000000000E+00 0.000000000000E+00 0.000000000000E+00 0.000000000000E+00 0.000000000000E+00 0.000000000000E+00 0.000000000000E+00
 4.301144565006E+01 1.927872543431E+01 0.000000000000E+00 1.901146810252E+01 1.796301129756E+01 0.000000000000E+00 3.577940085721E+00 -8.335923029998E+01 0.000000000000E+00 3.439967589914E+01 4.380987002143E+01 0.000000000000E+00 1.803896463675E+03
 -3.755552326977E+01 -2.119378752899E+01 0.000000000000E+00 -8.252959607964E+00 -1.410250580536E+01 0.000000000000E+00 1.254562165707E+00 1.726800196347E+01 0.000000000000E+00 -1.019081868170E+02 2.449197136265E+01 0.000000000000E+00 -2.373667539254E+02 3.163267148105E+03
 0.000000000000E+00 0.000000000000E+00 0.000000000000E+00 0.000000000000E+00 0.000000000000E+00 0.000000000000E+00 0.000000000000E+00 0.000000000000E+00 0.000000000000E+00 0.000000000000E+00 0.000000000000E+00 0.000000000000E+00 0.000000000000E+00 0.000000000000E+00 0.000000000000E+00
 -1.224973083600E+03 4.499659644160E+02 0.000000000000E+00 -4.642619166906E+02 -1.098368895893E+01 0.000000000000E+00 -1.524416683394E+00 -5.582366812644E-01 0.000000000000E+00 5.722257187782E+00 2.023625154971E+00 0.000000000000E+00 -3.146590786371E+01 2.418123204899E+01 0.000000000000E+00 2.821843191399E+03
 4.435331536663E+02 -7.427823325672E+02 0.000000000000E+00 -1.118368216899E+01 -1.432779334127E+03 0.000000000000E+00 -3.593721196616E-01 -7.435820877109E-01 0.000000000000E+00 1.412639575369E-01 5.952305167753E-01 0.000000000000E+00 -5.580236041071E+00 4.786965048083E+00 0.000000000000E+00 -4.601473008547E-01 2.781001772855E+03
 0.000000000000E+00 0.000000000000E+00 0.000000000000E+00 0.000000000000E+00 0.000000000000E+00 0.000000000000E+00 0.000000000000E+00 0.000000000000E+00 0.000000000000E+00 0.000000000000E+00 0.000000000000E+00 0.000000000000E+00 0.000000000000E+00 0.000000000000E+00 0.000000000000E+00 0.000000000000E+00 0.000000000000E+00 0.000000000000E+00
 -1.189725253607E+03 -4.084874642316E+02 0.000000000000E+00 1.592872594122E+00 5.061315656094E-01 0.000000000000E+00 -1.259342945778E+03 4.677778601190E+02 0.000000000000E+00 -4.636106795313E+02 -1.557102275694E+01 0.000000000000E+00 -2.316287445535E+01 2.026785786143E+01 0.000000000000E+00 -2.151284195120E+01 -3.275567802700E+01 0.000000000000E+00 2.814253906528E+03
 -4.020668643891E+02 -6.971966630164E+02 0.000000000000E+00 2.411407054026E+00 2.381362609279E+00 0.000000000000E+00 4.495278226050E+02 -7.448609697950E+02 0.000000000000E+00 -4.381137532120E+00 -1.508748481834E+03 0.000000000000E+00 -5.167895818766E+01 5.936810694300E+01 0.000000000000E+00 3.004405319187E+01 5.748519560828E+01 0.000000000000E+00 -2.858817710265E+01 2.835471602076E+03
 0.000000000000E+00 0.000000000000E+00 0.000000000000E+00 0.000000000000E+00 0.000000000000E+00 0.000000000000E+00 0.000000000000E+00 0.000000000000E+00 0.000000000000E+00 0.000000000000E+00 0.000000000000E+00 0.000000000000E+00 0.000000000000E+00 0.000000000000E+00 0.000000000000E+00 0.000000000000E+00 0.000000000000E+00 0.000000000000E+00 0.000000000000E+00 0.000000000000E+00 0.000000000000E+00
 9.227226942960E+00 4.318272790243E+00 0.000000000000E+00 -1.220060455288E+03 -4.152706535628E+02 0.000000000000E+00 -2.329246081536E+00 3.093193806347E+00 0.000000000000E+00 -1.205524898394E+03 4.484549373377E+02 0.000000000000E+00 -7.277481538906E+01 6.371696750196E+01 0.000000000000E+00 3.111215699874E+01 -1.404638603153E+00 0.000000000000E+00 3.478239153962E+01 -1.257042233058E+01 0.000000000000E+00 2.793372109473E+03
 -3.853570158741E+00 -1.181354052080E+00 0.000000000000E+00 -4.221076413583E+02 -7.024661127136E+02 0.000000000000E+00 -7.466129917417E-01 -8.811461139689E+00 0.000000000000E+00 4.288387903246E+02 -7.383804743977E+02 0.000000000000E+00 1.994361490566E+01 -1.031425398538E+01 0.000000000000E+00 -6.547383223052E+01 8.059514060601E-01 0.000000000000E+00 7.439996339214E+01 2.819483430032E+00 0.000000000000E+00 -2.136721129940E+00 2.803130929887E+03
 0.000000000000E+00 0.000000000000E+00 0.000000000000E+00 0.000000000000E+00 0.000000000000E+00 0.000000000000E+00 0.000000000000E+00 0.000000000000E+00 0.000000000000E+00 0.000000000000E+00 0.000000000000E+00 0.000000000000E+00 0.000000000000E+00 0.000000000000E+00 0.000000000000E+00 0.000000000000E+00 0.000000000000E+00 0.000000000000E+00 0.000000000000E+00 0.000000000000E+00 0.000000000000E+00 0.000000000000E+00 0.000000000000E+00 0.000000000000E+00
 -3.855942093855E+01 -1.584038810242E+01 0.000000000000E+00 -1.031929650506E+01 -1.005457454259E+01 0.000000000000E+00 -1.204006910683E+03 -4.408992684754E+02 0.000000000000E+00 -8.947805869011E+01 -2.069903787447E+01 0.000000000000E+00 -2.903466567394E+02 1.919449383745E+01 0.000000000000E+00 1.972594832163E+01 3.343462964711E+00 0.000000000000E+00 1.451795027105E+01 1.052314973553E+01 0.000000000000E+00 4.962778310125E+01 -1.818335271963E+01 0.000000000000E+00 2.734139468013E+03
 -1.831516892401E+01 -7.701560253276E+00 0.000000000000E+00 -4.966608113969E+00 -4.073319227795E+00 0.000000000000E+00 -4.108704784465E+02 -7.187611974063E+02 0.000000000000E+00 -4.127356161019E+01 -8.479399440167E+00 0.000000000000E+00 1.928870325433E+02 -1.699520722546E+03 0.000000000000E+00 9.125805497006E+00 1.889494210310E+00 0.000000000000E+00 5.274412202368E+01 7.944596815968E+01 0.000000000000E+00 2.111827760996E+01 -8.855414739313E+00 0.000000000000E+00 -1.039619517759E+02 2.932632142118E+03
 0.000000000000E+00 0.000000000000E+00 0.000000000000E+00 0.000000000000E+00 0.000000000000E+00 0.000000000000E+00 0.000000000000E+00 0.000000000000E+00 0.000000000000E+00 0.000000000000E+00 0.000000000000E+00 0.000000000000E+00 0.000000000000E+00 0.000000000000E+00 0.000000000000E+00 0.000000000000E+00 0.000000000000E+00 0.000000000000E+00 0.000000000000E+00 0.000000000000E+00 0.000000000000E+00 0.000000000000E+00 0.000000000000E+00 0.000000000000E+00 0.000000000000E+00 0.000000000000E+00 0.000000000000E+00
 -1.165619827356E+01 -7.658644379885E+00 0.000000000000E+00 -4.327396683419E+00 -6.211933360013E+00 0.000000000000E+00 8.952653906539E+00 3.399374500201E+01 0.000000000000E+00 -1.192919162405E+03 -4.266842355943E+02 0.000000000000E+00 -1.060764310451E+03 3.462563826098E+02 0.000000000000E+00 1.092809341847E+01 2.659202631056E+00 0.000000000000E+00 4.039040763747E+01 1.934888182077E+01 0.000000000000E+00 3.782059920005E+00 -3.305007971670E+01 0.000000000000E+00 5.428340286444E+00 -7.139756815584E+00 0.000000000000E+00 2.874644373406E+03
 1.398952113387E+01 7.421815257948E+00 0.000000000000E+00 4.592712012953E+00 6.401472623876E+00 0.000000000000E+00 -7.130147215766E+00 -1.188511296205E+01 0.000000000000E+00 -3.908104275976E+02 -6.929196605312E+02 0.000000000000E+00 3.474882357680E+02 -9.220232785059E+02 0.000000000000E+00 -1.044554894651E+01 -2.006677598118E+00 0.000000000000E+00 -7.488532474259E+01 -1.991579017042E+01 0.000000000000E+00 8.442415042621E+00 6.167502357455E+01 0.000000000000E+00 1.532513753375E+02 3.984410605312E+01 0.000000000000E+00 7.930497705409E-01 2.903387513727E+03
 0.000000000000E+00 0.000000000000E+00 0.000000000000E+00 0.000000000000E+00 0.000000000000E+00 0.000000000000E+00 0.000000000000E+00 0.000000000000E+00 0.000000000000E+00 0.000000000000E+00 0.000000000000E+00 0.000000000000E+00 0.000000000000E+00 0.000000000000E+00 0.000000000000E+00 0.000000000000E+00 0.000000000000E+00 0.000000000000E+00 0.000000000000E+00 0.000000000000E+00 0.000000000000E+00 0.000000000000E+00 0.000000000000E+00 0.000000000000E+00 0.000000000000E+00 0.000000000000E+00 0.000000000000E+00 0.000000000000E+00 0.000000000000E+00 0.000000000000E+00
 -4.436541631657E-01 -2.254425397737E-01 0.000000000000E+00 -1.770833955311E-01 -2.303676520705E-01 0.000000000000E+00 2.808598455312E-01 5.231223075907E-01 0.000000000000E+00 -4.876707733295E-01 -3.274738594179E-01 0.000000000000E+00 5.748753403346E+00 -2.581608507659E+00 0.000000000000E+00 3.649621930725E-01 6.030944849748E-02 0.000000000000E+00 1.665425260180E-01 6.808153780849E-01 0.000000000000E+00 8.563243846134E-01 -1.233133077217E-01 0.000000000000E+00 -2.443278256969E+00 -1.125742550616E+00 0.000000000000E+00 -1.756114028773E+00 1.548995224622E+00 0.000000000000E+00 2.809636378410E+03
 1.504097587003E-01 1.447345543328E-01 0.000000000000E+00 1.023402988967E-01 1.045734408508E-01 0.000000000000E+00 -1.785486361689E-01 -6.684447169524E-01 0.000000000000E+00 -1.953422973710E-01 7.464417938785E-02 0.000000000000E+00 -2.030484316746E+00 2.285087852339E+00 0.000000000000E+00 -1.907347956343E-01 -6.212224994339E-02 0.000000000000E+00 7.908334743545E-02 -2.525507147992E-01 0.000000000000E+00 -3.241562852228E-01 -4.192464627122E-02 0.000000000000E+00 8.859121054238E-01 2.525881644774E-01 0.000000000000E+00 9.467144490248E-01 -9.001613091511E-01 0.000000000000E+00 2.203791803712E+00 2.800760151719E+03
 0.000000000000E+00 0.000000000000E+00 0.000000000000E+00 0.000000000000E+00 0.000000000000E+00 0.000000000000E+00 0.000000000000E+00 0.000000000000E+00 0.000000000000E+00 0.000000000000E+00 0.000000000000E+00 0.000000000000E+00 0.000000000000E+00 0.000000000000E+00 0.000000000000E+00 0.000000000000E+00 0.000000000000E+00 0.000000000000E+00 0.000000000000E+00 0.000000000000E+00 0.000000000000E+00 0.000000000000E+00 0.000000000000E+00 0.000000000000E+00 0.000000000000E+00 0.000000000000E+00 0.000000000000E+00 0.000000000000E+00 0.000000000000E+00 0.000000000000E+00 0.000000000000E+00 0.000000000000E+00 0.000000000000E+00
 -4.685905329883E-01 -2.355806487151E-01 0.000000000000E+00 -1.368599301335E-01 -1.337130246900E-01 0.000000000000E+00 8.678813483961E-02 -3.925984749203E-01 0.000000000000E+00 -1.038528108907E+00 -2.440693134563E-01 0.000000000000E+00 3.731578832010E+00 -2.062826018862E+00 0.000000000000E+00 2.667542588611E-01 5.577350866902E-02 0.000000000000E+00 3.441356525562E-01 5.742154317516E-01 0.000000000000E+00 6.598075687499E-01 -1.956145217769E-01 0.000000000000E+00 -2.487596238668E+00 -1.209862601415E+00 0.000000000000E+00 -8.766541449120E-01 9.955823321940E-01 0.000000000000E+00 4.178498468353E+01 7.161236783487E+01 0.000000000000E+00 2.784429617156E+03
 -4.739418362371E-01 -2.257779603114E-01 0.000000000000E+00 -1.561389725909E-01 -1.750542463903E-01 0.000000000000E+00 1.650214065455E-01 3.874963875482E-02 0.000000000000E+00 -8.048163297639E-01 -3.019752291404E-01 0.000000000000E+00 4.111603307031E+00 -2.977191710858E+00 0.000000000000E+00 3.116175166243E-01 5.626058283623E-02 0.000000000000E+00 2.895854667797E-01 6.288405259704E-01 0.000000000000E+00 7.697235708942E-01 -1.866225852552E-01 0.000000000000E+00 -2.482030412856E+00 -1.158123352465E+00 0.000000000000E+00 -1.286164356628E+00 1.285831850605E+00 0.000000000000E+00 -1.187545574816E+00 -1.938187570434E+00 0.000000000000E+00 2.784388622912E+02 2.857385578972E+03
 0.000000000000E+00 0.000000000000E+00 0.000000000000E+00 0.000000000000E+00 0.000000000000E+00 0.000000000000E+00 0.000000000000E+00 0.000000000000E+00 0.000000000000E+00 0.000000000000E+00 0.000000000000E+00 0.000000000000E+00 0.000000000000E+00 0.000000000000E+00 0.000000000000E+00 0.000000000000E+00 0.000000000000E+00 0.000000000000E+00 0.000000000000E+00 0.000000000000E+00 0.000000000000E+00 0.000000000000E+00 0.000000000000E+00 0.000000000000E+00 0.000000000000E+00 0.000000000000E+00 0.000000000000E+00 0.000000000000E+00 0.000000000000E+00 0.000000000000E+00 0.000000000000E+00 0.000000000000E+00 0.000000000000E+00 0.000000000000E+00 0.000000000000E+00 0.000000000000E+00
 -2.249502452642E+01 -3.492595457401E+01 0.000000000000E+00 3.783711885156E+01 -1.169598151350E+00 0.000000000000E+00 5.287606520147E-01 -1.551317262472E+00 0.000000000000E+00 -4.887714784837E+00 -1.360477050029E+00 0.000000000000E+00 1.846572266246E+01 -9.407142478387E+00 0.000000000000E+00 -1.248299387603E+03 -4.319917851748E+02 0.000000000000E+00 1.706536671608E+00 2.714659932858E+00 0.000000000000E+00 3.357620308108E+00 -1.058693419699E+00 0.000000000000E+00 -1.148558596172E+01 -5.854966054127E+00 0.000000000000E+00 -4.791588704239E+00 4.722468674733E+00 0.000000000000E+00 -1.960526692516E+01 3.443345869425E+01 0.000000000000E+00 -1.521109229233E-01 -1.573260960577E-01 0.000000000000E+00 2.776480322207E+03
 3.477609817469E+01 6.025096313851E+01 0.000000000000E+00 -6.852033435917E+01 4.339632807957E-01 0.000000000000E+00 8.848649971821E-02 -1.857048817060E+00 0.000000000000E+00 -3.461957858013E+00 -7.707329025277E-01 0.000000000000E+00 8.994977026214E+00 -7.795763249320E+00 0.000000000000E+00 -4.361212455113E+02 -7.213082436767E+02 0.000000000000E+00 1.274912398907E+00 1.615938022947E+00 0.000000000000E+00 1.911993912942E+00 -7.675842733806E-01 0.000000000000E+00 -7.381398051403E+00 -3.286331379962E+00 0.000000000000E+00 -2.182147948511E+00 2.952923924290E+00 0.000000000000E+00 -3.232557960655E+01 5.709881243209E+01 0.000000000000E+00 -1.081045360762E-01 -9.953411705787E-02 0.000000000000E+00 1.786191565351E+01 2.805940803588E+03
 0.000000000000E+00 0.000000000000E+00 0.000000000000E+00 0.000000000000E+00 0.000000000000E+00 0.000000000000E+00 0.000000000000E+00 0.000000000000E+00 0.000000000000E+00 0.000000000000E+00 0.000000000000E+00 0.000000000000E+00 0.000000000000E+00 0.000000000000E+00 0.000000000000E+00 0.000000000000E+00 0.000000000000E+00 0.000000000000E+00 0.000000000000E+00 0.000000000000E+00 0.000000000000E+00 0.000000000000E+00 0.000000000000E+00 0.000000000000E+00 0.000000000000E+00 0.000000000000E+00 0.000000000000E+00 0.000000000000E+00 0.000000000000E+00 0.000000000000E+00 0.000000000000E+00 0.000000000000E+00 0.000000000000E+00 0.000000000000E+00 0.000000000000E+00 0.000000000000E+00 0.000000000000E+00 0.000000000000E+00 0.000000000000E+00
 -1.144514155925E+00 -5.412732059459E-01 0.000000000000E+00 -1.929025066036E+01 -3.150623471670E+01 0.000000000000E+00 1.931232109613E-01 -9.106778751978E-01 0.000000000000E+00 -2.450178672828E+00 -6.120847213084E-01 0.000000000000E+00 8.065559602332E+00 -5.531580555076E+00 0.000000000000E+00 6.943033357274E-01 1.358855134465E-01 0.000000000000E+00 8.452472711186E-01 1.358366532502E+00 0.000000000000E+00 1.559442275066E+00 -4.858769632448E-01 0.000000000000E+00 -5.875028639495E+00 -2.825443618687E+00 0.000000000000E+00 -2.238251271223E+00 2.424280907807E+00 0.000000000000E+00 3.918131537293E+01 -6.943241168662E+01 0.000000000000E+00 -2.304928997454E+01 4.056117750905E+01 0.000000000000E+00 3.985977584982E+01 6.661601423193E+01 0.000000000000E+00 2.772124630575E+03
 -6.098136083238E-01 -3.774393672968E-01 0.000000000000E+00 3.358953722300E+01 5.543768690358E+01 0.000000000000E+00 3.484593475604E-01 1.569394721970E-01 0.000000000000E+00 -1.006663769410E+00 -4.099605907010E-01 0.000000000000E+00 5.817308655381E+00 -5.490282838780E+00 0.000000000000E+00 4.464844511079E-01 8.300797083378E-02 0.000000000000E+00 3.167554851706E-01 8.876183717368E-01 0.000000000000E+00 1.258576710828E+00 -2.947661994145E-01 0.000000000000E+00 -4.007911638512E+00 -1.904286136597E+00 0.000000000000E+00 -2.674180850177E+00 2.220297824902E+00 0.000000000000E+00 -2.896572933393E-01 4.135741466286E-01 0.000000000000E+00 -4.187707928334E+01 7.394673583658E+01 0.000000000000E+00 -4.761496920819E-01 -5.171082138559E-01 0.000000000000E+00 -3.783801805819E+01 2.756518289359E+03
 0.000000000000E+00 0.000000000000E+00 0.000000000000E+00 0.000000000000E+00 0.000000000000E+00 0.000000000000E+00 0.000000000000E+00 0.000000000000E+00 0.000000000000E+00 0.000000000000E+00 0.000000000000E+00 0.000000000000E+00 0.000000000000E+00 0.000000000000E+00 0.000000000000E+00 0.000000000000E+00 0.000000000000E+00 0.000000000000E+00 0.000000000000E+00 0.000000000000E+00 0.000000000000E+00 0.000000000000E+00 0.000000000000E+00 0.000000000000E+00 0.000000000000E+00 0.000000000000E+00 0.000000000000E+00 0.000000000000E+00 0.000000000000E+00 0.000000000000E+00 0.000000000000E+00 0.000000000000E+00 0.000000000000E+00 0.000000000000E+00 0.000000000000E+00 0.000000000000E+00 0.000000000000E+00 0.000000000000E+00 0.000000000000E+00 0.000000000000E+00 0.000000000000E+00 0.000000000000E+00
 5.765563557811E-01 2.739666686947E-01 0.000000000000E+00 1.623589084221E-01 1.788140585238E-01 0.000000000000E+00 -1.065216491830E-01 5.972451393537E-01 0.000000000000E+00 1.391714047683E+00 3.368416357596E-01 0.000000000000E+00 -5.024808665243E+00 1.808606694271E+00 0.000000000000E+00 -3.283005172669E-01 -5.233174833694E-02 0.000000000000E+00 -4.531540231520E-01 -7.349592493590E-01 0.000000000000E+00 -8.503310040100E-01 2.739384710103E-01 0.000000000000E+00 3.146866542160E+00 1.663739948109E+00 0.000000000000E+00 1.218247351012E+00 -1.150981379932E+00 0.000000000000E+00 -1.231422865833E+03 4.356140281783E+02 0.000000000000E+00 -5.073682850246E+02 -2.042598123593E+01 0.000000000000E+00 1.733002909330E-01 1.309441286380E-01 0.000000000000E+00 1.086078686061E-01 8.311330975619E-02 0.000000000000E+00 2.842858327083E+03
 3.736423307930E-01 1.190721605805E-01 0.000000000000E+00 9.998618149587E-02 1.014884338643E-01 0.000000000000E+00 -2.043163337437E-02 4.285048353188E-01 0.000000000000E+00 9.109458315821E-01 2.256832293950E-01 0.000000000000E+00 -2.316409986343E+00 1.696700853440E+00 0.000000000000E+00 -1.794339295093E-01 -2.224176811299E-02 0.000000000000E+00 -3.531520362226E-01 -4.189697854188E-01 0.000000000000E+00 -4.916035851597E-01 2.061526055888E-01 0.000000000000E+00 1.759773414849E+00 8.189750222646E-01 0.000000000000E+00 4.641376765239E-01 -6.649180741293E-01 0.000000000000E+00 4.378039612946E+02 -7.347204115695E+02 0.000000000000E+00 -3.043528444607E+01 -1.541307343548E+03 0.000000000000E+00 1.035669545397E-01 6.565203079752E-02 0.000000000000E+00 6.761444182468E-02 2.240402927359E-02 0.000000000000E+00 2.975112886621E+01 2.892973785933E+03
 0.000000000000E+00 0.000000000000E+00 0.000000000000E+00 0.000000000000E+00 0.000000000000E+00 0.000000000000E+00 0.000000000000E+00 0.000000000000E+00 0.000000000000E+00 0.000000000000E+00 0.000000000000E+00 0.000000000000E+00 0.000000000000E+00 0.000000000000E+00 0.000000000000E+00 0.000000000000E+00 0.000000000000E+00 0.000000000000E+00 0.000000000000E+00 0.000000000000E+00 0.000000000000E+00 0.000000000000E+00 0.000000000000E+00 0.000000000000E+00 0.000000000000E+00 0.000000000000E+00 0.000000000000E+00 0.000000000000E+00 0.000000000000E+00 0.000000000000E+00 0.000000000000E+00 0.000000000000E+00 0.000000000000E+00 0.000000000000E+00 0.000000000000E+00 0.000000000000E+00 0.000000000000E+00 0.000000000000E+00 0.000000000000E+00 0.000000000000E+00 0.000000000000E+00 0.000000000000E+00 0.000000000000E+00 0.000000000000E+00 0.000000000000E+00
 6.731322299308E-01 3.925972994063E-01 0.000000000000E+00 2.617524975561E-01 2.844429935283E-01 0.000000000000E+00 -4.158082426484E-01 -7.405820171356E-01 0.000000000000E+00 7.326756636226E-01 4.195952253201E-01 0.000000000000E+00 -7.720514757187E+00 5.024238631562E+00 0.000000000000E+00 -2.020395866200E+01 3.487129431357E+01 0.000000000000E+00 -2.599888449296E-01 -9.578037300866E-01 0.000000000000E+00 -1.264199193092E+00 2.130577285681E-01 0.000000000000E+00 3.765251120839E+00 1.532795630800E+00 0.000000000000E+00 2.527547182937E+00 -2.477628518285E+00 0.000000000000E+00 -1.224573137927E+03 -4.238316328382E+02 0.000000000000E+00 5.983113563368E-02 8.219595706353E-02 0.000000000000E+00 -1.170253059595E+03 4.254889101667E+02 0.000000000000E+00 -4.720483629389E+02 -1.253530585667E+01 0.000000000000E+00 -1.975105753085E+01 -3.372055361525E+01 0.000000000000E+00 2.752074532435E+03
 2.112073164285E-01 -2.977523921476E-02 0.000000000000E+00 -9.974983529598E-02 5.708012968169E-03 0.000000000000E+00 1.256357876779E-01 1.196417745309E+00 0.000000000000E+00 1.194762777693E+00 1.489152971289E-01 0.000000000000E+00 -5.292226277895E-02 -1.051721384385E-01 0.000000000000E+00 -3.259616077963E+01 5.818922395111E+01 0.000000000000E+00 -4.287350571855E-01 -1.613824267815E-01 0.000000000000E+00 -2.512332444233E-01 2.699563540150E-01 0.000000000000E+00 1.181098826218E+00 7.887867104407E-01 0.000000000000E+00 -2.542662081633E-01 1.500429120339E-01 0.000000000000E+00 -4.270691743925E+02 -7.104631842627E+02 0.000000000000E+00 3.194856169173E-02 9.001030626362E-03 0.000000000000E+00 4.267386772655E+02 -7.191719717450E+02 0.000000000000E+00 -3.303125200054E+00 -1.497273143993E+03 0.000000000000E+00 3.475882637135E+01 5.954988405440E+01 0.000000000000E+00 4.045283958295E+00 2.809149924639E+03
 0.000000000000E+00 0.000000000000E+00 0.000000000000E+00 0.000000000000E+00 0.000000000000E+00 0.000000000000E+00 0.000000000000E+00 0.000000000000E+00 0.000000000000E+00 0.000000000000E+00 0.000000000000E+00 0.000000000000E+00 0.000000000000E+00 0.000000000000E+00 0.000000000000E+00 0.000000000000E+00 0.000000000000E+00 0.000000000000E+00 0.000000000000E+00 0.000000000000E+00 0.000000000000E+00 0.000000000000E+00 0.000000000000E+00 0.000000000000E+00 0.000000000000E+00 0.000000000000E+00 0.000000000000E+00 0.000000000000E+00 0.000000000000E+00 0.000000000000E+00 0.000000000000E+00 0.000000000000E+00 0.000000000000E+00 0.000000000000E+00 0.000000000000E+00 0.000000000000E+00 0.000000000000E+00 0.000000000000E+00 0.000000000000E+00 0.000000000000E+00 0.000000000000E+00 0.000000000000E+00 0.000000000000E+00 0.000000000000E+00 0.000000000000E+00 0.000000000000E+00 0.000000000000E+00 0.000000000000E+00
 7.843084556115E-01 4.029750142777E-01 0.000000000000E+00 2.696133315709E-01 2.829129442252E-01 0.000000000000E+00 -2.935346757026E-01 -1.743117306705E-01 0.000000000000E+00 1.179810536936E+00 4.323306475870E-01 0.000000000000E+00 -5.984937679623E+00 6.010068733846E+00 0.000000000000E+00 -5.286427108147E-01 -1.157311631835E-01 0.000000000000E+00 -4.248634355712E-01 -1.008099203330E+00 0.000000000000E+00 -1.253284427330E+00 2.699188027045E-01 0.000000000000E+00 4.262419418841E+00 1.799754459968E+00 0.000000000000E+00 2.216528310450E+00 -2.335053042193E+00 0.000000000000E+00 9.066124281670E-02 -2.691405326630E-02 0.000000000000E+00 -1.509004946038E+03 -5.264176956275E+02 0.000000000000E+00 2.961649458638E-01 1.623450970912E-01 0.000000000000E+00 -1.275081897251E+03 4.369461872631E+02 0.000000000000E+00 4.847167660536E+01 -1.372274272459E+00 0.000000000000E+00 3.938117257400E+01 -2.347658149735E-01 0.000000000000E+00 3.074259168976E+03
 -6.288828622937E-02 -1.291748930861E-03 0.000000000000E+00 -5.382333576284E-03 -1.821816209989E-02 0.000000000000E+00 -2.625734285499E-02 -2.046905549554E-01 0.000000000000E+00 -2.452531806476E-01 -5.950326138343E-02 0.000000000000E+00 2.326812049377E-01 1.347838030706E-02 0.000000000000E+00 1.522325754122E-02 -2.906676114361E-03 0.000000000000E+00 9.374076976350E-02 6.551936217089E-02 0.000000000000E+00 7.090976581465E-02 -5.451135104398E-02 0.000000000000E+00 -2.362578824639E-01 -1.831999667197E-01 0.000000000000E+00 -2.301315985224E-02 -1.542769076601E-02 0.000000000000E+00 -6.860709897775E-03 -1.450907593850E-02 0.000000000000E+00 -5.363158787042E+02 -8.627795018071E+02 0.000000000000E+00 -4.519518476233E-03 -7.166754477790E-03 0.000000000000E+00 4.216304196625E+02 -7.280200453080E+02 0.000000000000E+00 -8.597563734623E+01 2.392592224576E+00 0.000000000000E+00 7.188437588508E+01 -3.999490875190E-01 0.000000000000E+00 8.846193194523E+01 2.538388190532E+03
 0.000000000000E+00 0.000000000000E+00 0.000000000000E+00 0.000000000000E+00 0.000000000000E+00 0.000000000000E+00 0.000000000000E+00 0.000000000000E+00 0.000000000000E+00 0.000000000000E+00 0.000000000000E+00 0.000000000000E+00 0.000000000000E+00 0.000000000000E+00 0.000000000000E+00 0.000000000000E+00 0.000000000000E+00 0.000000000000E+00 0.000000000000E+00 0.000000000000E+00 0.000000000000E+00 0.000000000000E+00 0.000000000000E+00 0.000000000000E+00 0.000000000000E+00 0.000000000000E+00 0.000000000000E+00 0.000000000000E+00 0.000000000000E+00 0.000000000000E+00 0.000000000000E+00 0.000000000000E+00 0.000000000000E+00 0.000000000000E+00 0.000000000000E+00 0.000000000000E+00 0.000000000000E+00 0.000000000000E+00 0.000000000000E+00 0.000000000000E+00 0.000000000000E+00 0.000000000000E+00 0.000000000000E+00 0.000000000000E+00 0.000000000000E+00 0.000000000000E+00 0.000000000000E+00 0.000000000000E+00 0.000000000000E+00 0.000000000000E+00 0.000000000000E+00
 1.328126173061E+00 6.714714910723E-01 0.000000000000E+00 -1.223627610588E+03 4.486263446232E+02 0.000000000000E+00 -2.895413941448E-01 2.877395580312E-01 0.000000000000E+00 2.240804464379E+00 6.696825002742E-01 0.000000000000E+00 -1.012519042879E+01 8.369433969450E+00 0.000000000000E+00 3.969323188976E+01 -7.279509388394E-01 0.000000000000E+00 -7.911218915382E-01 -1.669781846410E+00 0.000000000000E+00 -2.193524209545E+01 3.612002941558E+01 0.000000000000E+00 6.791429367244E+00 2.930413323133E+00 0.000000000000E+00 3.254668667571E+00 -3.464029557909E+00 0.000000000000E+00 1.406281590772E-01 -6.651068776826E-02 0.000000000000E+00 8.426040689640E-02 1.099916881097E-01 0.000000000000E+00 3.584778429836E-01 2.262097300858E-01 0.000000000000E+00 -1.141302140247E+03 -3.878658501704E+02 0.000000000000E+00 -1.141492812297E-01 -7.390785347799E-02 0.000000000000E+00 3.629752548943E+01 -1.342586290612E-01 0.000000000000E+00 -1.785972775317E+01 -3.220262855957E+01 0.000000000000E+00 2.731314633351E+03
 2.296808082417E+00 1.144582716468E+00 0.000000000000E+00 4.581842975348E+02 -7.439347134008E+02 0.000000000000E+00 -6.779319142025E-01 1.250722624363E+00 0.000000000000E+00 4.612126569801E+00 1.339526316151E+00 0.000000000000E+00 -1.801759316028E+01 1.461548301494E+01 0.000000000000E+00 6.542805160054E+01 -1.086979411305E+00 0.000000000000E+00 -1.598272473629E+00 -2.849138689565E+00 0.000000000000E+00 -3.691829296496E+01 6.049205435543E+01 0.000000000000E+00 1.256830958758E+01 5.604598694797E+00 0.000000000000E+00 5.751664766601E+00 -6.131991988438E+00 0.000000000000E+00 2.174279370065E-01 -5.203869810017E-02 0.000000000000E+00 1.297832055849E-01 1.932620538277E-01 0.000000000000E+00 8.321073476274E-01 5.183139192561E-01 0.000000000000E+00 -3.861548981585E+02 -6.652309984943E+02 0.000000000000E+00 -1.884251893979E-01 -1.513410145391E-01 0.000000000000E+00 -6.545467831787E+01 2.535041652769E-01 0.000000000000E+00 3.133831290565E+01 5.759531777119E+01 0.000000000000E+00 -1.125265691910E+01 2.818833882800E+03
 0.000000000000E+00 0.000000000000E+00 0.000000000000E+00 0.000000000000E+00 0.000000000000E+00 0.000000000000E+00 0.000000000000E+00 0.000000000000E+00 0.000000000000E+00 0.000000000000E+00 0.000000000000E+00 0.000000000000E+00 0.000000000000E+00 0.000000000000E+00 0.000000000000E+00 0.000000000000E+00 0.000000000000E+00 0.000000000000E+00 0.000000000000E+00 0.000000000000E+00 0.000000000000E+00 0.000000000000E+00 0.000000000000E+00 0.000000000000E+00 0.000000000000E+00 0.000000000000E+00 0.000000000000E+00 0.000000000000E+00 0.000000000000E+00 0.000000000000E+00 0.000000000000E+00 0.000000000000E+00 0.000000000000E+00 0.000000000000E+00 0.000000000000E+00 0.000000000000E+00 0.000000000000E+00 0.000000000000E+00 0.000000000000E+00 0.000000000000E+00 0.000000000000E+00 0.000000000000E+00 0.000000000000E+00 0.000000000000E+00 0.000000000000E+00 0.000000000000E+00 0.000000000000E+00 0.000000000000E+00 0.000000000000E+00 0.000000000000E+00 0.000000000000E+00 0.000000000000E+00 0.000000000000E+00 0.000000000000E+00