#BIOSYM hessian 1
@Type: Hessian Update
@Units
 distance: 	A
 energy: 	Kcal/Mol
#header
@natom 70

#label
C1      C2      C3      C4      C5      C6      C7      C8      C9      C10     C11     C12     C13     C14     C15     C16     C17     C18     C19     C20     C21     C22     C23     C24     C25     C26     C27     C28     C29     C30     C31     C32     C33     C34     C35     C36     C37     C38     C39     C40     C41     C42     C43     C44     C45     C46     C47     C48     H49     H50     H51     H52     H53     H54     H55     H56     H57     H58     H59     H60     H61     H62     H63     O64     H65     H66     C67     O68     O69     H70

#element
C  C  C  C  C  C  C  C  C  C  C  C  C  C  C  C  C  C  C  C  C  C  C  C  C  C  C  C  C  C  C  C  C  C  C  C  C  C  C  C  C  C  C  C  C  C  C  C  H  H  H  H  H  H  H  H  H  H  H  H  H  H  H  O  H  H  C  O  O  H 

#matrix
210
 2.804585509852E+03
 -1.625078817595E+01 2.826053110481E+03
 -3.193984251727E+00 -1.328309012720E+01 1.902669381780E+02
 3.970627634716E+01 6.617379203779E+01 -5.448490133281E-01 2.775503049955E+03
 -5.402957995715E-01 -9.296436980085E-01 1.419304537201E-01 -2.647381956534E+01 2.739375476615E+03
 -3.340285740857E-02 1.033863830156E-02 8.348830947083E+00 6.588195333623E-01 -1.481536345345E+01 1.877250415449E+02
 -1.926583517268E+01 3.470042144117E+01 -9.174484721282E-02 4.541110790945E-02 1.007796007778E-01 5.714044115838E-02 2.825188582496E+03
 -3.331003275022E+01 5.970524189456E+01 -1.543640054920E-01 -3.971190574494E-03 -2.806592132354E-02 -3.364206591746E-02 3.153450806214E+01 2.756204332084E+03
 1.477414469831E-01 -2.593037984820E-01 1.418189316985E+01 1.275583593952E-01 -1.244739834425E-01 3.132769280323E-01 -2.295567672047E+00 -7.981983550950E+00 1.814645060265E+02
 3.798486573110E+01 -6.767246258809E+01 2.577791646387E-01 -1.964081732624E+01 3.482790123859E+01 -9.248986403320E-02 3.985168698569E+01 6.900175070377E+01 -4.102217945878E-01 2.793317931143E+03
 -3.770886155827E-01 4.743888942413E-01 -2.613670461745E-02 -3.202020198866E+01 5.681544051832E+01 -2.598408873255E-01 -3.311119301967E-01 -6.126223492484E-01 1.063869317219E-01 3.346970954353E+00 2.820643522928E+03
 -7.293508389352E-02 7.597826406570E-02 4.876815423043E+00 -3.531556104561E-03 -1.898674724090E-01 8.013453170560E+00 -8.053869442317E-02 1.823937511884E-01 1.602743118600E+01 -9.912384013620E-01 -1.188147440984E+01 1.904688231777E+02
 -5.362122786346E-02 -6.341393167175E-02 -1.344082985608E-03 -6.344718597456E-02 -3.295026592837E-02 8.052169547532E-03 5.062467526271E+01 -8.445892773931E+01 3.381899153040E-01 -2.096144976895E+01 3.680585706561E+01 -1.436113497521E-01 3.179339351070E+03
 -5.456166857220E-02 -6.204943073422E-04 5.105961346732E-02 -2.403669563948E-02 -2.343606120636E-02 -3.428410393086E-02 -6.656228090168E-01 1.143398642094E+00 -7.798087634044E-03 -3.421805443588E+01 5.986669812200E+01 -9.610329336762E-02 1.744742312653E+02 3.380631062398E+03
 -8.275532757972E-02 2.093327508366E-02 6.482765602374E+00 1.140523773837E-01 -1.589761866036E-01 4.180447604252E-01 4.676470000078E-02 2.711197220519E-01 1.106357975942E+00 8.305934333987E-02 -2.112900054180E-01 1.852671780122E+01 -9.260539755232E-01 -1.273634262664E+01 1.842826722916E+02
 -1.223587211478E+03 4.495838586570E+02 -7.710444786972E-01 -4.592115239983E+02 -1.391879495763E+01 2.914968087600E-01 -1.657171226778E-02 -6.017620284977E-02 1.164344410362E-03 2.738719395974E-02 -8.586029707805E-02 1.509860157897E-02 3.695016869272E-02 1.685255705560E-02 5.072263532474E-02 2.810026789873E+03
 4.444991744835E+02 -7.459291167127E+02 2.831583797343E+00 -1.052659184587E+01 -1.418314560392E+03 7.712191532920E+00 -6.547299778991E-02 1.244798330773E-02 1.084331176095E-01 -1.847866075359E-01 1.367163445114E-01 -1.716230944524E-01 2.694705916792E-02 7.603756736727E-03 4.645001047000E-02 -3.050080675505E+00 2.766251258987E+03
 -8.504340329235E-01 2.903551397124E+00 -8.083567984259E+01 4.418034016320E-01 7.562817559196E+00 -7.974571426632E+01 -3.724106555915E-02 7.944499293431E-02 1.300924631802E+00 -4.285376718070E-02 8.145632744349E-02 -6.009712478306E+00 -9.209211336692E-03 1.617329045958E-02 -4.151568136272E+00 -3.649735451156E+00 -1.454568571431E+01 1.895777856690E+02
 -1.217872022225E+03 -4.175537939748E+02 3.325891916648E+00 1.206029332644E-02 4.675454702852E-02 -8.749683086195E-02 -1.236368219591E+03 4.400009493091E+02 -2.261716685300E-01 -4.729455585787E+02 -7.574332990201E+00 4.599851335994E-01 1.616034770872E-02 7.997939777714E-02 1.559359197334E-01 -1.978487332398E+01 -3.295894922434E+01 2.869143363519E-01 2.811581225473E+03
 -4.166543655540E+02 -7.034558419989E+02 3.497797504863E+00 1.786993123124E-01 8.198453927486E-02 -8.462712297133E-02 4.484439868717E+02 -7.345992019431E+02 1.828178519804E+00 -1.145345374772E+01 -1.463843085725E+03 6.038314476431E+00 6.783510100158E-02 -9.860292470359E-02 -2.532404394512E-01 3.528456105004E+01 5.913674406116E+01 -3.563386895580E-01 -1.397727470444E+01 2.781160847049E+03
 3.429356704811E+00 3.384156284539E+00 -8.015254335116E+01 3.800662270299E-02 -6.258786855233E-02 -8.749309973746E+00 -4.480487898911E-01 1.877021788058E+00 -8.617787275815E+01 4.178634927606E-01 5.918230793146E+00 -8.053847284373E+01 -9.372923369204E-04 -3.633005060215E-03 -1.410912524509E+01 -1.364310894182E-01 -1.805114818279E-01 7.404700486034E+00 -3.471033365371E+00 -1.104081844041E+01 1.919722717697E+02
 -1.834907482235E-01 1.034763791091E-02 7.397016181584E-02 -1.190673965382E+03 -4.164134799487E+02 2.123386017183E+00 6.844679175862E-02 4.195760876426E-02 -8.771367759584E-02 -1.189304913975E+03 4.430875965740E+02 -1.650325087815E+00 2.851584648653E-02 -6.967620212996E-03 -1.276985987017E-01 3.656591382343E+01 -3.691253674299E-01 -1.228482035311E-01 4.071732488261E+01 -5.674791584617E-01 8.966206187086E-03 2.722157411045E+03
 5.682042659637E-02 3.078512056490E-01 -1.817847414597E-02 -4.179597516444E+02 -6.915565724007E+02 3.307325605516E+00 -1.166785125042E-01 8.367542057339E-02 6.227260453842E-02 4.450322479971E+02 -7.374636790578E+02 3.053871858672E+00 3.986270367148E-02 7.502744218754E-03 1.256694140431E-01 -6.476106067465E+01 5.548932981675E-01 7.427930356769E-02 6.657085341177E+01 -7.932632826026E-01 2.312101513384E-02 -1.030071356957E+01 2.737698686179E+03
 2.527465524784E-01 1.124277063366E-01 -5.486004903312E+00 2.369130779736E+00 3.438034175565E+00 -7.835288335791E+01 1.298120199173E-01 -5.211988128838E-01 -1.415614705932E+00 -1.690965720845E+00 2.904127621246E+00 -7.771567183614E+01 1.761846582062E-01 -2.096354340157E-01 -3.903126351523E+00 3.654384519592E-01 8.200339438319E-02 5.705813487085E+00 -6.848271915394E-01 8.580758573450E-03 7.145748753166E+00 -2.214785991736E-01 -1.338790475039E+01 1.860246100064E+02
 7.719006964243E-03 8.042061588590E-03 -2.525962601559E-02 -1.242899129679E-02 2.821801628834E-02 -1.494437971604E-03 -1.261265413323E+03 -4.481682615805E+02 1.983636085147E+00 9.871565789084E-02 -1.337009745683E-01 -1.087036573955E-01 -6.095894291820E+02 1.065275829732E+00 -7.488672820936E-02 1.560901607819E-02 -2.127387524396E-02 1.138177154648E-02 -2.140428639951E+01 -3.697483985082E+01 1.875066306568E-01 4.386465313661E-02 -5.708549209884E-02 2.192596983539E-01 2.650446972648E+03
 7.348670801501E-02 4.677762475518E-02 -1.167526352030E-02 4.191771110809E-02 3.900302676841E-02 3.666476492578E-02 -4.631152286272E+02 -7.742729207978E+02 2.589777278918E+00 -1.837455530922E-01 -7.182919885850E-02 -1.852449328965E-01 -2.062574952936E+01 -1.811187413765E+03 6.807564981175E+00 -2.249207025064E-02 -2.850502035847E-02 -3.053043053034E-02 3.569486283297E+01 6.154852856918E+01 -2.063053247968E-01 7.522300230872E-03 -3.151097542816E-02 2.253728864159E-01 1.972604696278E+02 3.025832463255E+03
 5.732142457921E-03 -9.725731360368E-04 -2.538415751878E+00 -1.456741862731E-01 1.569631533508E-01 -4.917654038556E-01 2.110330647706E+00 2.507162536757E+00 -6.807460899051E+01 1.195142074699E-02 -8.001300831672E-02 -1.933266668332E+01 8.109557738620E-02 6.850809962429E+00 -8.143995598638E+01 -1.733506685024E-02 -7.098730067369E-02 4.782892863318E+00 -1.796708056925E-01 -4.973744555462E-02 1.407959528515E+01 9.133290978081E-02 -4.816651744630E-02 8.453338425841E+00 -9.238611288315E-01 -1.122187573427E+01 1.588590086808E+02
 7.693189660234E-02 7.765004023160E-02 -1.678813811697E-02 7.184139524840E-02 2.631302150407E-02 2.224970845667E-02 1.682521395278E-01 -5.832963641317E-02 2.187229172252E-02 -1.250230477966E+03 -4.338626985437E+02 2.394327374066E+00 -1.225981175210E+03 4.265344178312E+02 -1.268646483013E+00 -4.975575113311E-02 -2.198816910927E-02 2.702077288512E-03 3.954283937508E+01 -4.655298311534E-01 -5.769346586888E-02 -2.068659684981E+01 -3.384009257054E+01 8.291197972541E-02 5.005489293578E+01 -4.966480829805E-01 2.338226219772E-02 2.860501601168E+03
 -1.076070395316E-01 -1.321860558790E-01 -4.398356333231E-02 -3.422750647043E-02 -9.375915717620E-02 2.266578820549E-02 5.804862692811E-02 -2.580706079289E-01 3.809000264830E-02 -4.377681475327E+02 -7.354660828671E+02 3.054731198969E+00 4.337478231174E+02 -7.928890970374E+02 2.935353533923E+00 1.251099609874E-02 1.081275005972E-01 8.624658812615E-03 -6.931571051626E+01 8.712107849137E-01 8.086013486478E-02 3.595399907901E+01 5.923546667552E+01 -7.462669492497E-02 8.188629853560E+01 -8.378455383929E-01 -5.684593939236E-02 8.493795042007E+00 2.982556309013E+03
 1.890565165215E-01 1.500868152381E-01 2.934851332412E+00 -4.020937953407E-02 1.186896135063E-01 4.500142259550E+00 -1.106021728423E-03 -4.649600573632E-01 -8.200495379662E+00 2.765952517750E+00 3.134414563000E+00 -9.067949199998E+01 -1.478568449830E+00 2.796334735526E+00 -8.462423524370E+01 1.070315764117E-02 -4.709976109297E-02 7.959824532751E-01 -3.953642303537E-02 1.883312644472E-01 1.001009315365E+01 -1.167447137679E-01 -4.271278939239E-01 1.388119261841E+01 -1.413150669468E-01 2.572335956156E-01 7.433780760117E+00 -1.302155431794E+00 -1.241813973841E+01 2.035263254290E+02
 -4.341771761026E-02 -6.485650566502E-02 4.025830258554E-02 -4.558845630233E-02 -2.663145575764E-02 2.448971672669E-02 5.661233589103E-02 -1.419789906847E-02 -8.420524928083E-02 1.379502121041E-02 -4.140825894693E-02 1.553309734289E-02 -3.260629480216E-02 -1.705732973530E-02 -8.734500759035E-02 3.477883171689E-02 2.317967517180E-02 -4.839386823965E-02 -5.166408701877E-03 3.248363003902E-02 -3.356028169325E-02 2.795813619638E-02 1.484293320825E-02 9.640674851762E-02 5.806684590245E-03 3.655772630696E-02 9.891103881077E-02 4.081439410503E-02 -5.244346976026E-02 9.174097681791E-02 2.808916691031E+03
 6.652664109557E-03 3.055421803989E-02 -6.243735387046E-02 -7.466806080574E-03 1.885880929376E-02 1.396756967957E-02 -1.896194882450E-02 -8.611859474450E-03 7.892918301562E-02 -1.494725874996E-03 -1.127094847039E-02 -9.275211224553E-02 9.118820751663E-03 -4.513964180117E-03 6.354051537261E-02 -4.434305875138E-03 -1.158668580599E-02 7.439148374489E-02 -7.276209213661E-04 -1.121251136663E-02 3.227288575503E-02 2.920656523494E-02 -6.162385671116E-03 1.647062219318E-01 8.436696092321E-03 1.504494281654E-03 -1.186385917458E-01 -2.057860847342E-02 3.190852075621E-03 2.062180970985E-02 1.923229435091E+00 2.804285854107E+03
 2.135782505742E-02 1.322480718803E-02 -2.406356937806E+00 -5.085587299516E-02 7.778209838636E-02 -1.363067968531E-01 1.377456400184E-02 -4.804226823021E-02 3.658544282364E+00 8.901289131570E-03 -2.815316665420E-02 -3.036430856175E+00 1.881048350684E-02 -1.663812169239E-03 4.387487953735E+00 9.013672261667E-03 -6.762050536872E-03 6.057264449190E+00 -4.112489856425E-02 3.194477809535E-02 1.351940809951E+00 4.837348707823E-02 -4.481534997929E-02 3.071373528740E+00 -8.454805447030E-03 1.273152150231E-02 -5.094890007973E+00 -2.092280727885E-02 -7.136533780927E-04 -8.684061655577E-01 -3.760412944321E+00 -2.080422906904E+01 1.925060251701E+02
 4.968669352241E-02 4.044472484392E-02 -9.254113488848E-02 2.921785230215E-02 2.114407332711E-02 -1.010245257935E-02 -9.331382454197E-03 -1.089915805796E-02 1.193735406432E-01 1.799461746827E-02 2.690610651336E-02 -1.547555092806E-01 2.571403139954E-02 6.507956061061E-04 8.041319995841E-02 -1.602480841054E-02 -1.958546786262E-02 2.844883154811E-02 -2.840039498409E-02 -1.576734282345E-02 6.199273555259E-02 -1.481205176329E-02 -5.069470512222E-02 2.650659518518E-01 1.723744614213E-03 -1.181915536534E-02 -1.392134560494E-01 -2.473747503501E-02 4.125928245093E-02 4.834059520822E-02 4.162200983172E+01 7.139915716781E+01 -8.060681321849E-01 2.792600161728E+03
 1.926827034105E-02 2.921413122806E-02 -9.023442941038E-02 1.132474456220E-02 1.940808826887E-02 -3.599952934156E-03 -1.928103128124E-02 2.702218124078E-02 1.348754054992E-01 3.444489582403E-03 1.341232104975E-02 -1.123659514645E-01 1.171517999198E-02 7.454367092467E-03 1.514290304317E-01 -2.218694953530E-03 -1.934546738708E-02 5.145698758508E-02 -6.163725383240E-04 -1.562252921078E-02 5.332037695247E-02 2.933341386614E-03 -3.019726142277E-02 1.117318592358E-01 -1.585131295102E-03 -9.627450183053E-03 -1.845588739042E-01 -1.521583276195E-02 9.849915689438E-03 -4.889089560631E-02 -1.099659097166E+00 -1.913004013589E+00 7.072229074088E-02 2.825342400402E+02 2.858864195108E+03
 -6.282187174331E-02 -6.126031012225E-02 -7.593969288000E+00 -1.852788499477E-01 1.340415678368E-01 -5.919697251600E-01 -2.054735203544E-02 1.812862274399E-01 1.194300506372E+01 -5.926743969749E-02 -5.464233844755E-02 -8.947948865027E+00 -1.590487397517E-02 1.218770573430E-01 1.498687343396E+01 -2.012300479994E-02 -1.035045281721E-01 5.219480650368E+00 8.956141855504E-02 7.355219359655E-02 4.235426710682E+00 4.160493212836E-02 7.241895860840E-02 7.051718229420E+00 -1.163761266932E-01 -9.774136089383E-02 -1.669790205966E+01 1.890909979315E-02 -1.207847618717E-01 -4.165749500964E+00 4.650111944462E-02 -2.143680947342E-01 5.244011284244E+00 -4.278591651305E+00 -2.516377863827E+01 1.326670338277E+02
 -2.038776625210E+01 -3.400991990114E+01 2.369298712978E-01 3.773562115934E+01 -4.472384508558E-01 3.246005467392E-02 2.033143074258E-02 -3.406744497551E-03 -4.833748313375E-02 -2.049830870378E-02 -3.493963525827E-02 -5.488264903347E-03 -2.869328080350E-02 -1.663269977671E-02 -7.293650834678E-02 -1.244857092031E+03 -4.319766353700E+02 4.081387609708E+00 3.680224722861E-03 3.241414847537E-02 -3.333311873556E-02 5.941636556669E-02 -1.086688396855E-02 8.255973931076E-02 6.729994425189E-03 2.585147651126E-02 4.859312230917E-02 2.259639595283E-02 -4.822880441699E-02 4.470386876197E-02 -1.942532839009E+01 3.413500056828E+01 -1.906700300562E-01 2.571374585712E-02 4.146926227143E-03 5.347158344107E-02 2.782058351340E+03
 3.619318571266E+01 6.049397050301E+01 -3.163875565411E-01 -6.734107292944E+01 8.451059323404E-01 1.532804167274E-01 -2.045175846458E-02 6.685622356032E-03 -6.349191301582E-02 8.612883069484E-02 -2.925807539406E-02 -2.469880218321E-02 3.307732947541E-02 6.630094392190E-04 -1.088336171067E-01 -4.363656213396E+02 -7.196337161930E+02 4.318281469295E+00 -3.124976466724E-02 -5.700880065047E-02 2.922916246128E-02 7.496580059746E-02 -5.440214712356E-02 3.249716309116E-01 2.323983674105E-02 8.307455489875E-04 5.505894118646E-02 -5.565725735777E-02 -7.818279608963E-03 1.114015314244E-01 -3.261376760331E+01 5.740645981541E+01 -2.683188598063E-01 1.464550179174E-02 -8.479721330977E-03 -4.433069887880E-02 1.895519448390E+01 2.788504739464E+03
 -1.773776282692E-01 -2.364302949212E-01 1.136425449948E+01 3.988231906733E-01 -3.543964479661E-02 9.191217887269E+00 -1.846671278845E-02 1.643063821387E-02 -2.703954238336E+00 -2.072914816875E-02 3.960897464056E-02 2.199476572781E+00 -1.494989905183E-02 -2.546645830958E-03 -3.338930590219E+00 4.012964989883E+00 4.412656817940E+00 -8.391684554891E+01 5.632594869936E-02 -8.669165515018E-04 3.624684239984E+00 -4.805794955524E-02 3.930171353186E-02 2.237098608532E+00 1.194100575036E-02 -4.036004761257E-03 3.814787305592E+00 1.518341494261E-02 -9.991667985541E-04 6.997924238615E-01 2.286369515954E-01 -3.483324762725E-01 9.964161418018E+00 2.994521812775E-02 4.418112020914E-02 4.098207595798E+00 -3.100239481000E+00 -1.657946856080E+01 1.901362755558E+02
 7.396176483890E-03 1.734171209988E-02 -6.326771446820E-02 -1.884384457899E+01 -3.189016049726E+01 1.520139543393E-01 -3.378687955125E-02 4.728890339013E-02 9.067451038784E-02 -5.426817101942E-02 7.045313222032E-02 -1.034258854393E-01 5.427025044373E-03 1.022105507116E-02 4.583688889189E-02 -1.274722608398E-02 9.330593084369E-03 1.783450822721E-02 2.312201338265E-02 9.618504771379E-03 4.327387518046E-02 -9.171900047741E-02 1.030082900637E-03 9.135191097715E-02 -1.661770837391E-02 -8.165619999729E-03 -8.762935404268E-02 7.221641731594E-03 4.256233420641E-02 3.570752700644E-02 3.956000567574E+01 -6.960342736591E+01 4.648193742843E-01 -2.307524198197E+01 4.065215332286E+01 -5.502786252718E-01 4.029585846404E+01 6.770708581652E+01 -5.692124733384E-01 2.783895463616E+03
 2.156409242805E-02 -1.126965297558E-02 -9.805607219105E-02 3.372186565817E+01 5.696212159244E+01 -2.601322724808E-01 1.096971958262E-02 -8.120269185418E-03 1.228005554529E-01 2.299437322969E-02 -3.320512488049E-03 -1.904754173288E-01 3.475772038348E-03 -1.544036522173E-02 6.084052014347E-02 1.657358169833E-02 1.651067813172E-02 -3.405898882106E-02 -1.459814352277E-02 7.894228988662E-03 5.899044304481E-02 3.031861127571E-02 -7.266185532366E-02 3.774433517556E-01 1.127159514786E-02 1.393641996783E-02 -1.561178163201E-01 -9.523878408206E-03 6.820209165484E-04 8.298851565675E-02 -1.564269693875E-01 2.917485642208E-01 -1.862749235263E-04 -4.206155214433E+01 7.415670901576E+01 -8.128487267811E-01 -1.336938432103E-01 -2.467345159776E-01 1.339348627189E-01 -3.328125959971E+01 2.768681618824E+03
 4.403210115467E-02 1.185549489756E-02 1.336224419091E+00 -1.708120409855E-01 -3.377544495846E-01 8.543142892289E+00 1.353550486075E-02 -5.158833307764E-02 -2.132394401592E+00 5.668567108344E-03 -6.991514975873E-03 1.558432263822E+00 -4.107521678609E-04 -3.953842789186E-02 -2.807312331496E+00 -3.200949978490E-03 -3.779523709914E-02 -9.851374039517E+00 -1.869879745581E-02 -2.372380268154E-03 -7.337421189912E-01 2.804787351656E-02 1.345103474554E-02 3.102860343887E+00 1.897689279923E-02 3.390261986708E-02 3.059439730958E+00 9.945999562818E-03 4.423441956843E-02 7.842155402058E-01 -1.564552969487E-02 1.430047966837E-01 1.059193498950E+01 4.590188571773E-01 -5.057683404310E-01 1.546065556605E+01 -7.008116064612E-02 -2.253403055174E-02 8.301453654386E+00 1.422567267022E+00 -1.962383982482E+01 1.861357420087E+02
 2.366500432378E-02 5.539479714125E-02 -4.751190094552E-02 4.706067947127E-02 2.022137576472E-02 -2.377359473058E-02 -5.281196648587E-02 7.647131491176E-03 8.992699031706E-02 -3.860142725200E-02 3.163212165161E-02 -1.236682271357E-02 2.174280455848E-02 1.041240672025E-02 9.435888710636E-02 -3.072158836691E-02 -1.594831414606E-02 5.883792866385E-02 1.674697505486E-02 -2.033949116812E-02 2.525290716152E-02 -2.195739608452E-02 9.294553397836E-03 -1.272538777730E-01 -5.067954754491E-03 -2.716483404187E-02 -1.080459833623E-01 -2.923585340921E-02 4.607403558758E-02 -9.065283616096E-02 -1.232570374465E+03 4.356652068738E+02 -1.674870837272E+00 -5.068296652178E+02 -1.922990979573E+01 5.505774455326E-01 3.109478699514E-02 -3.600857095737E-02 5.541532349298E-02 -4.355412641326E-03 7.357896444741E-05 -2.777213177312E-02 2.848215087478E+03
 -1.811681238534E-02 -4.427529617824E-02 8.761072547569E-02 -1.831859115684E-02 -3.184066175978E-02 -6.332333278732E-03 3.198742807189E-02 -2.351838426314E-02 -1.243029207938E-01 5.903451972278E-03 -9.837954857483E-03 1.091996771640E-01 -1.499264302087E-02 -6.948591937296E-03 -1.376448410311E-01 5.560245583308E-03 2.481755774838E-02 -5.058407119564E-02 -6.429637552673E-04 1.962332403195E-02 -4.722928162006E-02 -1.266376580987E-02 2.509482371698E-02 -1.306090529124E-01 -3.536165248886E-04 9.192208836327E-03 1.793394496971E-01 2.335573477031E-02 -1.138094868170E-02 3.918878539327E-02 4.370110182310E+02 -7.340441445688E+02 4.707115301111E+00 -2.918766530331E+01 -1.535242709847E+03 1.376812317045E+01 -4.500237308239E-03 2.753795993484E-02 -1.272329754325E-02 1.142083185978E-02 -1.105870352298E-02 -1.462115523536E-01 3.286592517045E+01 2.891651204027E+03
 -5.593108642573E-02 -3.140315346225E-02 8.791500464729E+00 1.822340047762E-01 -2.300223244443E-01 5.399237187020E-01 -2.649608907621E-02 5.338581749425E-02 -1.352665942271E+01 -1.252092628424E-02 9.050209809951E-02 1.086594939631E+01 -5.224980845269E-02 -4.308537425214E-02 -1.656847403584E+01 3.190216987521E-02 1.331681574108E-01 -5.758046882866E+00 9.384702748098E-02 -1.035170276423E-01 -4.919815139445E+00 -1.342406056581E-01 8.877158205188E-02 -1.028444960244E+01 6.259579042058E-02 6.383878933722E-03 1.893413575094E+01 6.102278537383E-02 3.723140724064E-02 3.705142432310E+00 -1.855553905525E+00 4.865965934367E+00 -7.900845543898E+01 9.892912827260E-01 1.374080625370E+01 -5.682472767836E+01 -9.555800942565E-02 -4.434042417350E-02 -9.357606588959E-02 1.459279966993E-01 1.337019841613E-01 -1.413107595072E+01 -4.896219012387E+00 -2.470141233552E+01 1.617831883425E+02
 3.051569120312E-02 8.316572707901E-02 7.271381802805E-03 7.993502633537E-02 6.576801026127E-02 -3.185073062635E-02 -5.767560690353E-02 2.531500406894E-02 7.332290967965E-03 -2.677573027344E-02 2.896083053775E-02 3.511047184557E-02 2.415521686627E-02 1.319603962030E-02 8.523352570966E-03 -1.960218347943E+01 3.475298772052E+01 -1.596839750954E-01 2.205186334393E-02 -3.496244985840E-02 2.823709872573E-03 -1.558270687555E-02 3.653217067468E-02 -8.837366630067E-02 -6.196308006899E-03 -2.415608972619E-02 -1.414209924456E-02 -2.940043793905E-02 4.123382888804E-02 -2.338940257710E-02 -1.221897808228E+03 -4.234776866098E+02 4.687450529903E+00 -3.267200896147E-02 -8.966630762771E-03 2.892458357900E-02 -1.182846704869E+03 4.258379076921E+02 -1.455341477634E+00 -4.749989724779E+02 -1.055804411653E+01 2.323741381475E-01 -1.969481734884E+01 -3.379134349263E+01 3.376532858141E-01 2.764359892586E+03
 9.450769983528E-03 -2.965733943162E-03 1.056019863016E-01 9.698254771601E-02 -3.649041827502E-02 -1.053146500474E-01 2.900484236580E-02 -1.630505235236E-02 -1.127262894162E-01 3.388419958522E-02 9.050446120223E-03 8.660846788076E-02 9.976770739897E-03 4.223121950153E-03 -9.604656375888E-02 -3.293407410530E+01 5.848556431635E+01 -3.455036521619E-01 -3.677985484232E-02 -7.301988433981E-03 -3.579747809564E-02 -3.871112615851E-02 -8.150683071760E-03 -6.865601832246E-02 -1.791540441950E-03 -8.396730464751E-03 1.588780150381E-01 2.239788835730E-03 2.105531745260E-02 5.294510882214E-02 -4.266914687759E+02 -7.124240974732E+02 5.445520834921E+00 -2.225158305540E-02 4.411942262447E-03 1.132009799046E-01 4.278783564112E+02 -7.185151808005E+02 3.742920892449E+00 -2.721859621213E+00 -1.504587410438E+03 1.084949328893E+01 3.464894636579E+01 5.945231835639E+01 -6.502104327487E-01 2.203851042627E+00 2.817592917716E+03
 -3.829475437557E-02 7.645899270586E-03 4.738625296697E+00 1.042135646155E-02 -3.611393136506E-02 -8.942408321197E+00 -2.123718205865E-02 8.288835700498E-02 -1.665357485481E-01 -2.702730949675E-02 2.110116391077E-02 3.730317218525E-01 -1.997526304809E-02 2.866772669504E-02 -4.722394538100E-02 2.633824000259E-01 -3.861697697110E-01 9.033216367155E+00 6.808229640052E-02 -1.464724905582E-02 -1.063080760783E-01 -3.759743529306E-02 4.200971906449E-02 -8.626924481818E-01 -2.085652020712E-02 -3.193466035731E-02 2.212955563601E-01 2.298247572395E-02 -2.607752779637E-02 -2.707783304531E-01 4.747658338533E+00 5.355317325089E+00 -8.247558574038E+01 -4.943778354504E-02 -1.210692361424E-01 -9.962753676144E+00 -1.577733845993E+00 3.848260250026E+00 -8.082593461541E+01 2.376270909562E-01 1.075021950733E+01 -8.315730124367E+01 -1.719818715038E-01 -3.271107126767E-01 9.409208551309E+00 -3.553529700055E+00 -1.961231659800E+01 1.917055686659E+02
 -5.078421502315E-02 -6.204426982257E-02 7.672053556717E-02 -4.110095353392E-02 -3.277305915817E-02 2.119236814996E-02 3.713541538418E-02 -5.117529285346E-02 -1.163265195002E-01 -6.219895363402E-03 -4.939369376482E-02 9.420075019951E-02 -2.849100041890E-02 -1.632333370260E-02 -9.929833971137E-02 1.542452245510E-02 3.467225419192E-02 -4.186375815805E-02 1.665775635852E-03 3.177206568798E-02 -5.211825469575E-02 2.536335086941E-02 4.968171711213E-02 -8.246840215130E-02 5.896487476229E-03 2.540797916826E-02 1.327043648413E-01 2.908699798505E-02 -4.381470729159E-02 2.608127959965E-02 -3.090676936659E-02 4.549393602585E-04 8.714955111696E-02 -1.516584460025E+03 -5.307363869523E+02 5.649118199581E+00 -3.668377683197E-02 7.621199137446E-03 -4.055134100696E-02 -1.271709987293E+03 4.341461144017E+02 -3.802645185868E+00 4.883043848756E+01 -1.312785242316E+00 -2.354013327549E-01 3.950614533596E+01 -1.453708741251E-01 9.545112936304E-03 3.079935917128E+03
 -2.752392735764E-02 -1.903943393094E-02 9.647256084445E-02 -1.918236151417E-02 -5.008346702291E-04 4.758087069897E-02 3.215867539546E-03 2.578718520379E-02 -1.355601747544E-01 -1.087886332056E-03 -1.676689822470E-02 1.458363420859E-01 -1.417597074403E-02 3.484383160350E-03 -1.163593856660E-01 1.615337598901E-02 4.389806572205E-03 -4.427811195137E-02 1.745728600081E-02 1.410415326625E-03 -5.901961709890E-02 1.887873453740E-02 1.881972729974E-02 -2.036036059081E-01 -1.191617281240E-03 5.918329904445E-03 1.677833475828E-01 1.274271120663E-02 -3.125784541846E-02 -2.906236219659E-02 -1.896568730775E-02 -7.443049748633E-03 -1.574567574734E-02 -5.415010889154E+02 -8.698888354766E+02 7.758260345069E+00 -1.190277844224E-02 -1.205525501270E-02 -2.685394962809E-03 4.188891903803E+02 -7.267776008434E+02 5.456103017656E+00 -8.605923827643E+01 2.321242289494E+00 -1.186973152605E-01 7.199965485633E+01 -2.788998478170E-01 1.513141894624E-01 9.514692610528E+01 2.545326715066E+03
 6.989174128634E-02 4.407733135051E-02 3.077203073621E+00 5.685386450381E-02 4.964509181157E-03 4.940605644835E+00 1.810913299331E-02 -1.355489355307E-01 -4.889631152144E+00 4.411147273852E-02 1.132018652387E-02 3.521673271583E+00 2.648304868126E-02 -7.290582408955E-02 -6.135259944794E+00 1.429276588213E-02 5.249496560929E-02 -2.181378959198E+00 -8.203236894123E-02 -2.202661928852E-02 -1.718078638629E+00 2.803789497626E-02 -9.013117558099E-02 -2.404636503404E+00 6.085757941243E-02 6.669624025056E-02 6.776165558543E+00 -2.982328906082E-02 7.677650311183E-02 1.895383584300E+00 -8.683534333719E-02 -1.866186080675E-02 -8.095055667858E+00 5.659097999041E+00 7.563380823568E+00 -6.364107672662E+01 2.796378879101E-02 6.483664635725E-02 2.913200229745E+00 -3.548715900559E+00 5.716900134980E+00 -7.779968749702E+01 8.096104088094E-01 4.815720245792E-02 2.524827373128E+00 -5.586544886352E-01 -2.610506736272E-02 9.566214875200E+00 -1.936368945730E+00 -2.188919405476E+01 1.489974814935E+02
 -1.424383377312E-03 -2.521611227546E-03 1.018372475021E-01 -1.244356807740E+03 4.477262140589E+02 -2.833570231414E+00 -1.025643492718E-02 3.614233362960E-02 -1.387332551714E-01 3.717979182504E-02 -3.059653027236E-02 1.411685457291E-01 1.378083497398E-03 -1.076063782036E-03 -1.223898381903E-01 3.991611855337E+01 -4.171811634987E-01 -4.441911339920E-02 -8.489871195235E-03 -1.865954625914E-02 -7.216902986303E-02 -1.967122713359E+01 3.477893519673E+01 -3.773735541013E-01 1.456045283469E-02 5.528561033463E-03 1.476169096296E-01 -2.365876590807E-02 -3.251818557899E-02 -5.356647573029E-02 -2.146460771782E-02 3.152996629411E-03 4.335723064029E-02 9.763349087136E-03 2.930784510472E-03 2.476178525241E-01 6.478760316839E-02 9.675109753186E-03 3.917298712074E-03 -1.154565336950E+03 -3.905772520476E+02 2.140059110078E+00 1.312496067168E-03 4.985047096497E-03 -2.223176091992E-01 3.687833180888E+01 -1.948806323909E-01 8.551769085151E-03 -1.776946800482E+01 -3.238472369574E+01 1.272311345107E-01 2.770345810012E+03
 -3.361367092030E-02 -4.331073889590E-02 -2.455408040617E-02 4.567241637624E+02 -7.412559658964E+02 4.072751530003E+00 5.030727679953E-02 -5.741217642363E-03 5.652297861294E-02 2.460802118771E-02 -4.404480045411E-02 -1.420375944362E-02 -2.275514561731E-02 1.744591084693E-02 1.502776472641E-01 6.731005744470E+01 -7.248447534689E-01 1.009171118958E-01 -1.379130848130E-03 3.497643798684E-03 2.618658444744E-02 -3.321065067959E+01 5.901443164481E+01 -1.729692877630E-01 9.333096973524E-03 2.391346097539E-02 -8.724304398736E-02 2.801044684141E-02 -8.622046929487E-02 -4.015256956739E-02 -9.636663835759E-03 -1.297006271621E-02 -5.379043938951E-03 2.670195371612E-02 1.035883349729E-02 -6.127634104239E-02 -3.474226227163E-02 -2.989093921564E-02 -2.656870781706E-02 -3.889041545230E+02 -6.729590921363E+02 4.031315588264E+00 -1.178782650558E-02 4.751391023305E-03 1.154724819883E-01 -6.607121859851E+01 3.466299473564E-01 9.805715177395E-03 3.173932663603E+01 5.790908120755E+01 -3.014896434152E-01 -7.445410438497E+00 2.837236901364E+03
 9.498215997616E-03 2.327298986175E-02 -1.346806761138E+00 -3.235540425656E+00 4.398737434653E+00 -8.308733285572E+01 3.446145060073E-02 -4.027498775989E-02 9.224018060352E+00 2.688268820315E-03 -4.333769707498E-02 -2.858702810378E+00 1.492599063973E-02 3.032883126768E-02 1.134407670055E+01 -3.400162151019E-01 -3.748415801762E-02 1.264115175463E+01 -4.328801514318E-02 7.357457148859E-02 3.349932478612E+00 3.016421197287E-01 -3.760021104250E-01 1.633861152359E+01 -5.128708389556E-02 -4.574587187709E-03 -1.292617056459E+01 -1.108586049775E-02 -6.408798618529E-02 -2.577223510123E+00 1.229050571441E-01 -6.261730160702E-02 8.137927936930E-02 -1.529853983159E-01 -9.738806448519E-02 -8.311417252586E+00 -1.998198327332E-02 -4.091182435558E-02 -5.776284586017E+00 2.223281941898E+00 3.815761165692E+00 -7.928070301659E+01 -9.364635716599E-02 1.232724516563E-01 1.567008644821E+01 4.855777116088E-01 2.613953809588E-01 8.448035818071E+00 -1.051413900340E-01 -2.145524221694E-01 1.531563368835E+01 6.444026381297E-01 -1.805821727459E+01 1.781755571833E+02