#BIOSYM hessian 1
@Type: Hessian Update
@Units
 distance: 	A
 energy: 	Kcal/Mol
#header
@natom 70

#label
C1      C2      C3      C4      C5      C6      C7      C8      C9      C10     C11     C12     C13     C14     C15     C16     C17     C18     C19     C20     C21     C22     C23     H24     C25     C26     C27     C28     C29     C30     C31     C32     C33     C34     C35     C36     C37     C38     C39     C40     C41     C42     C43     C44     C45     C46     C47     C48     C49     H50     H51     H52     H53     H54     H55     H56     H57     H58     H59     H60     H61     H62     H63     H64     H65     H66     O67     H68     O69     H70

#element
C  C  C  C  C  C  C  C  C  C  C  C  C  C  C  C  C  C  C  C  C  C  C  H  C  C  C  C  C  C  C  C  C  C  C  C  C  C  C  C  C  C  C  C  C  C  C  C  C  H  H  H  H  H  H  H  H  H  H  H  H  H  H  H  H  H  O  H  O  H 

#matrix
210
 2.776294185168E+03
 -2.400445932096E+01 2.795295148848E+03
 -6.055410147443E+01 -4.633962207108E+01 1.935750980185E+02
 3.918095504139E+01 6.402491780337E+01 -3.516020257808E+00 2.794000020753E+03
 -1.657670992562E-02 -1.386502408864E+00 4.917728930240E-01 -3.988228099632E+01 2.756086097300E+03
 -1.920335878858E-01 -4.744852117602E-01 8.105167800671E+00 -1.047797742415E+02 -8.076374924126E+01 1.983275008743E+02
 -1.874178762620E+01 3.403577442786E+01 -9.256779029737E-01 -3.922684908396E-01 -1.252950935479E-01 9.601712419666E-01 2.806798694324E+03
 -3.261639220463E+01 5.839109670647E+01 -1.595370987993E+00 -7.296010249515E-01 -5.138555733296E-01 3.026689959524E-02 2.204396431599E+01 2.746209628308E+03
 8.379833643698E-01 -1.932053263605E+00 8.992781415628E+00 4.934542456466E-02 -3.611100219098E-01 2.058863415697E-01 -4.228376397352E+01 -7.664577074106E+01 1.896123091120E+02
 3.636617246005E+01 -6.701562683958E+01 2.129910015586E+00 -2.022538507405E+01 3.551338353211E+01 -6.609970665478E-01 4.040972559764E+01 6.833200532838E+01 -3.324960677670E+00 2.800308533664E+03
 -4.382801846682E-01 3.176604405882E-01 -5.536229409567E-01 -3.318572646989E+01 5.917597858715E+01 -2.131480924465E+00 -7.187982456528E-01 -1.227049303298E+00 -4.471338069156E-03 -2.614181439749E+00 2.800365586073E+03
 -1.714296635299E-01 2.116116517570E+00 8.678806796083E+00 1.884594216832E+00 -3.998799006726E+00 9.109480881373E+00 -5.569152125802E-02 -6.640450459967E-01 9.583482093737E+00 -5.213132251195E+01 -9.064302028173E+01 1.977038717814E+02
 -1.548668782588E-01 7.737683135574E-02 -1.712237440437E-02 -1.327294970971E-01 2.190685300385E-01 -1.901567674626E-01 5.043343844048E+01 -8.371775506054E+01 2.872339369516E+00 -2.154305190258E+01 3.826850602974E+01 -8.717529903380E-01 2.607314287182E+03
 -3.438139407581E-02 -4.543104103722E-01 4.677416044349E-01 -6.380202857736E-01 -2.589291027371E-01 -4.991512009838E-01 -8.075443962569E-01 8.649057342979E-01 1.220307519717E-01 -3.488832248182E+01 6.141468521448E+01 -1.676796353070E+00 -1.720558605213E+02 3.051527090763E+03
 3.377167163565E-02 -8.075781113862E-02 2.204304035927E-01 -1.385957117961E-01 -2.296661643442E-01 2.036577684521E-02 -3.910629353354E-01 1.819119813556E+00 1.297025451226E+01 1.595702382013E+00 -2.763104768218E+00 1.077706262595E+01 -3.388084094548E+01 -1.012259980501E+02 1.544964500816E+02
 -1.219187977441E+03 4.485708216727E+02 2.354494727108E+01 -4.527823348737E+02 -1.728723153564E+01 7.495332450450E+00 -3.580565837766E-02 -1.543389942797E-01 3.282920869224E-01 -1.824776413403E-01 4.262078364623E-01 6.787159553840E-01 1.178117367091E-01 -4.771681282579E-02 9.144259791341E-03 2.814585167486E+03
 4.409512008873E+02 -7.443247359469E+02 1.315520522427E-02 -1.441524062897E+01 -1.404116614755E+03 3.576707272761E+01 1.442719676651E-01 4.613240097678E-01 1.056658735973E-01 2.362405221412E-02 1.246460834681E-01 -1.037526209108E+00 -1.257909407088E-01 3.081156102292E-01 -4.684795929898E-03 5.911053724155E+00 2.750730818022E+03
 2.005664379005E+01 1.549645517528E+00 -8.354261205557E+01 1.320276300508E+01 3.516038555139E+01 -8.025170455963E+01 4.878420034101E-02 4.803684641842E-01 5.141609033007E+00 -5.906033001780E-02 1.201190817199E+00 -8.871714172815E+00 9.498114970820E-02 3.003954503857E-01 1.467149258941E-01 -6.371834264009E+01 -5.096734570069E+01 1.936659200218E+02
 -1.200240195177E+03 -4.060351599135E+02 3.287234138704E+01 2.649436867479E-01 -3.147694658172E-01 -1.280656342287E+00 -1.236403540232E+03 4.465637492170E+02 7.011158931913E+00 -4.690823718117E+02 -1.271176328953E+01 6.423664310664E+00 9.183664515501E-03 -5.198079465035E-02 -4.852546567468E-02 -1.900170204168E+01 -3.150540271065E+01 2.001909637346E+00 2.792386772888E+03
 -4.045135851715E+02 -6.815746570185E+02 2.424978404422E+01 8.460726218521E-01 -5.892453374823E-03 -5.396326132779E-01 4.561504983572E+02 -7.414863923366E+02 1.270637287295E+01 -1.608490205706E+01 -1.455998820555E+03 4.644892359449E+01 2.296076631571E-02 2.396060396515E-01 -5.302963616430E-01 3.493489448827E+01 5.836260401672E+01 -2.864623977864E+00 -2.957725601867E+01 2.759970903270E+03
 3.464603650543E+01 2.152027703571E+01 -8.147951181729E+01 3.424896760386E-01 -2.758301250361E-01 -8.501266006354E+00 5.239440721710E+00 1.365333272378E+01 -8.268896301616E+01 7.462874360909E+00 4.633497647676E+01 -8.376205152327E+01 2.169047838706E-02 2.044638909036E-01 -1.017062700386E+01 -9.425943486215E-02 3.726037948179E-01 9.055186818326E+00 -4.569202545942E+01 -8.141895797692E+01 1.950594914148E+02
 -3.116492447016E-01 9.828958938352E-01 1.012883801552E+00 -1.230179085043E+03 -4.124215281356E+02 5.702605552425E+01 4.816851946599E-01 4.799314983054E-01 8.308573050081E-01 -1.208118474117E+03 4.426054908746E+02 9.746488471528E+00 -2.079189001640E-02 3.267854987681E-01 4.081900411444E-01 3.600075228965E+01 -6.567400281425E-01 -2.544000536849E+00 4.047395721182E+01 -1.138103654207E+00 3.479880901693E-01 2.802381990962E+03
 -1.777980415425E-01 7.461026406883E-01 2.361487822658E-01 -4.159926128782E+02 -6.950753110395E+02 3.773221341327E+01 4.823836478205E-01 5.270285117698E-01 2.835349734365E-01 4.459439435132E+02 -7.404034628024E+02 1.746717698452E+01 -1.363778362190E-01 2.542297459189E-01 3.548928546116E-01 -6.563422419073E+01 8.225043806259E-01 3.051560453518E+00 6.700375329786E+01 -1.174947145970E+00 -1.438284985228E+00 -1.737746465775E+00 2.786785073474E+03
 -9.289306179040E-01 -8.453764323340E-01 -9.123787929380E+00 5.895461283152E+01 3.569296437021E+01 -8.594553745201E+01 -2.681277901870E-01 7.594131697803E-01 5.217583797978E+00 9.705445645226E+00 1.581141357593E+01 -8.396416673261E+01 4.829448598406E-01 3.672621702110E-01 5.062124276840E+00 1.133737923455E-01 3.022497739185E-01 8.747331333524E+00 -2.384720347937E+00 -2.367810475344E-01 9.841196145555E+00 -7.476472731983E+01 -1.165550202513E+02 2.037428454858E+02
 -1.070320851720E-01 3.117921806743E-01 3.710638417170E-01 2.811726183893E-01 2.200519197852E-01 -3.519169253200E-01 -1.247403491618E+03 -4.420405213589E+02 3.144417851432E+01 9.994107686789E-02 3.421724403868E-02 -4.840212661792E-01 -5.664409412645E+02 -1.566057678799E+01 8.358332861197E+00 2.096028998492E-01 -1.966187583660E-01 1.765286947058E-01 -2.153676374880E+01 -3.668990454766E+01 1.929044936273E+00 -2.756994477530E-01 -4.252517800229E-01 1.585715397513E-01 2.606692176145E+03
 4.363796159415E-02 3.456805993582E-01 -6.311600939335E-02 4.966368315795E-01 2.587912342873E-01 4.033702854269E-01 -4.576092085846E+02 -7.667225323219E+02 2.832732886939E+01 2.667352244419E-01 1.626783130837E-01 -1.385494550254E-01 -2.517663025399E+01 -1.811649470764E+03 6.298426968054E+01 7.228721329961E-02 -2.507184909871E-01 -2.750889053816E-01 3.596376591840E+01 6.110543978985E+01 -2.690621660252E+00 -3.360520146855E-01 -1.974840370250E-01 -5.340327292866E-01 1.917032624813E+02 3.023212060947E+03
 -7.448241232030E-02 1.546651134371E-01 4.677233542216E+00 -3.189909426291E-02 1.243656014876E-01 -2.598934031068E-01 3.311650304810E+01 2.822795299270E+01 -7.878032130856E+01 -1.629670830611E-01 -4.433196221490E-02 -1.044769604473E+01 8.684483758133E+00 6.219141252725E+01 -7.298782449523E+01 5.417578421754E-02 1.823707534547E-01 -3.359750774282E-01 -6.868181946897E-01 -9.688170968256E-01 9.383030316348E+00 -4.727082503304E-01 -5.299209233154E-02 -1.866439860949E-01 -4.528476650691E+01 -1.008558804668E+02 1.564045969698E+02
 2.968960767757E-01 -1.216595149155E-01 -4.165450128293E-01 3.143774099482E-01 -2.311253271248E-01 8.738252487750E-01 -3.115544064653E-01 5.309605094762E-02 -1.927283339801E-01 -1.239046793262E+03 -4.304529321572E+02 3.716556959541E+01 -1.262387593537E+03 4.694497010216E+02 3.061175904129E+00 -2.623213927866E-01 1.236359695389E-01 -2.106621371844E-01 3.866114885917E+01 -5.937624337505E-01 -1.061678278403E+00 -2.001197382976E+01 -3.309133760232E+01 1.447371696064E+00 5.261954981425E+01 -8.486079754672E-01 -2.181442224462E-01 2.856793823914E+03
 7.886638970112E-03 7.034448469421E-01 -3.010743309834E-01 9.006697712678E-01 3.909797032484E-01 1.438850040093E-01 1.918474635230E-01 6.080966016913E-01 3.383394270024E-02 -4.278992124948E+02 -7.224128582232E+02 3.042347170673E+01 4.590479272901E+02 -7.959383158271E+02 1.879119587025E+01 -4.977388615237E-02 -4.452166590461E-01 -4.491968904233E-01 -6.865431887546E+01 7.073358500510E-01 1.709724948072E+00 3.557553306606E+01 5.892806996224E+01 -1.517283271858E+00 8.419884048387E+01 -1.540465765209E+00 -9.732027152918E-01 -3.892571118617E+01 2.877672077112E+03
 1.130018142799E-01 1.025592557033E-01 4.222608881918E+00 -5.159701765728E-01 3.539155152796E-01 4.130480221662E+00 -5.550431541715E-01 -5.884374295444E-01 -1.022362282384E+01 3.726133130900E+01 3.001911538496E+01 -8.697565438858E+01 3.472370801737E+00 1.867152052669E+01 -7.809898023226E+01 8.969520691287E-03 -2.051595907555E-01 2.383637039123E-01 1.661866317063E+00 5.504508203325E-01 1.015420291405E+01 -3.555079799777E-01 -6.925043415549E-01 1.078443243886E+01 -3.313844166200E+00 2.246284197293E-01 1.099376918430E+01 -4.522268053975E+01 -9.996614530670E+01 1.910778316626E+02
 4.953323957343E+00 -9.654324573521E+00 -8.592211314172E-01 -7.044666968710E+00 -4.247697910298E+00 2.011268341610E-01 -1.967561150810E+00 -5.091617510936E+00 6.159012102001E-01 -2.971220625222E+00 1.195621667329E-01 7.082555108857E-01 3.664017149650E-02 -3.651173290503E+00 -6.213121852319E-01 -4.689409060285E+00 4.534707073888E+00 -4.463751244254E-01 1.078220541977E+00 1.154552925730E+00 4.328656518925E-01 7.958018389199E+00 3.418304656105E+00 -2.116482561309E-02 1.666151459641E+00 3.902385010942E+00 -5.130872301138E-01 3.864682250733E-01 2.116880511598E+00 7.067714374184E-01 2.736923368128E+03
 -1.029921858316E+00 5.601785155642E+00 5.686095849176E-01 7.990797431459E+00 1.001358920682E+00 4.894533811389E-01 1.776918281731E+00 3.033816710122E+00 -3.052349998738E-02 2.634620635264E+00 1.073795026837E+00 -1.084434160677E+00 -3.818417624484E-01 2.225984442097E+00 8.817476186818E-01 2.323085768356E+00 -3.113454700762E-01 -2.350548147539E-03 -8.107368759165E-01 -1.205585415811E+00 2.720459105007E-01 -5.064435609841E+00 -4.853094824845E+00 4.140031623817E-01 -1.576761938873E+00 -1.853847308390E+00 1.962939379594E-02 3.741305583756E-01 -2.716129386064E+00 -1.971532491329E-02 2.681154591443E+01 2.632277820656E+03
 -1.657155349265E+00 -4.727482831014E-01 -3.932317287196E-01 -1.017406918643E+00 3.517418476572E+00 -2.726152191654E+00 -9.281962151387E-01 -7.241255408394E-01 3.710750606959E-01 -1.050310428530E+00 5.278926891944E-01 -1.297325131422E+00 -5.444889202859E-01 -4.879216560742E-01 4.107668683233E-01 3.772689207258E+00 2.550252182978E-01 3.835792922529E+00 1.805522012501E+00 -1.562969916591E-01 9.856700691186E-02 2.323854886264E+00 -1.301729318438E+00 9.284634027811E+00 3.855037734425E-01 4.183192558701E-01 6.000670379840E-01 5.845392676617E-01 -1.405177450271E+00 5.378947838873E+00 -1.087814024418E+02 1.725919901400E+02 2.527449644301E+02
 -5.379417833011E+00 -1.155072667627E+00 -5.612953166543E-01 -2.064324662048E+01 1.006148806370E+01 1.561249242287E-02 -2.257520968208E+00 4.598831356930E-02 5.694846474744E-01 -3.971263276704E+00 -3.295398658950E+00 3.161013470927E+00 -5.752418159784E-01 -5.326259856732E-01 -1.890863686655E+00 8.337309165468E-01 -1.190620477916E+01 1.112427067087E+00 3.955034145695E+00 2.584716497326E+00 -5.556540726820E-01 7.606358978911E+00 8.826919577789E+00 -2.790573401833E+00 1.067957459111E+00 -5.129516022339E-01 -5.122960465967E-01 2.865519826359E-01 2.104562319998E+00 -1.611318691821E+00 2.842525752147E+01 1.203429698849E+02 1.634828014478E+01 2.344683778583E+03
 4.881869605064E+00 -9.830288536451E-01 -1.246044602696E-01 7.285285869071E+00 -4.757886412910E+00 -3.292522033094E+00 1.666226968842E+00 1.233706116775E-01 3.037392934615E-01 2.127719442453E+00 2.165237437788E+00 -1.679867222699E+00 -8.384044762205E-02 3.590619742432E-01 1.080897711298E+00 -3.970499343904E+00 3.549394906152E+00 -3.623176592104E-01 -1.366517707668E+00 -1.160924721973E+00 7.543612590575E-01 -1.003591847691E+00 -3.810880301738E+00 5.933914851587E+00 -1.288861764351E+00 1.028662233704E-01 1.735043185765E-01 2.729141611234E-01 -2.582425216957E+00 4.368970851485E+00 -5.848679585059E+01 -3.820683285551E+00 3.043601024342E+01 3.014705833426E+02 2.695556485993E+03
 7.737549899231E+00 -8.633806164933E+00 -2.334789696792E+00 1.151468217662E+00 -1.144438521652E+01 1.068671887460E+00 -6.992793556949E-01 -7.058131695553E+00 -3.606854837762E-03 -3.331635305386E+00 -1.314017014732E-01 6.383778566487E-02 1.547779993829E+00 -4.880338243229E+00 -1.019290194572E+00 -3.811706702852E+00 1.497196110919E+01 2.503842884813E-01 -2.557312079923E+00 1.125342718579E+00 1.104942316684E+00 4.728329561455E+00 2.207392011422E+00 1.262829895330E+00 2.027609541873E+00 4.815999565705E+00 -8.120879240716E-01 -7.217681310387E-01 4.848844571863E+00 9.583778985637E-01 -9.908643599805E+01 1.617298865784E+01 1.527824462527E+01 2.426994564445E+02 -4.818535104276E+01 8.999575048200E+02
 -2.007015264972E+01 -3.537422903397E+01 4.738576292823E-02 3.503254647090E+01 -9.543775408351E-01 1.774458889997E+00 -6.582640712752E-01 -1.041349668049E+00 -2.301084774589E-01 -1.040086174522E+00 -8.169492336246E-01 -3.335743499562E-02 2.936237598281E-01 -8.095086805353E-01 -1.594231508727E-01 -1.261710039931E+03 -4.330654107316E+02 3.359188096436E+01 -7.520827267333E-02 3.040448835557E-01 -6.177909214080E-01 1.536849996791E+00 2.089567954860E+00 -1.746227315718E-01 9.048587442511E-01 5.801323954348E-01 -4.818990122762E-02 -2.977695280105E-01 1.518529161560E+00 -1.000061380766E+00 -1.636856902509E+01 4.161742002567E+01 -4.186171853396E+00 -8.231794245815E+00 1.573682437043E+01 -7.453268513655E+00 2.773892672674E+03
 3.596138453882E+01 6.031686708754E+01 -1.093266614641E+00 -6.846043201667E+01 8.128956312194E-01 3.755358046764E+00 -2.891451629496E-01 -5.770245311394E-01 -2.137433283993E-01 -5.186007768878E-01 -6.779823764397E-01 3.107137183364E-01 2.197588889716E-02 -4.729486590725E-01 -2.570727837082E-01 -4.404478251006E+02 -7.192629932596E+02 1.156924313654E+01 2.845177251830E-02 4.023212648941E-01 -5.369560649187E-01 2.577287758184E-02 1.007253966436E+00 6.177473028565E-01 2.914249683164E-01 3.014068627973E-01 1.659504938622E-01 2.570638315141E-02 9.538500906796E-01 -2.762843288715E-01 -3.167115822415E+01 6.114196479749E+01 -4.674726682350E-01 -4.251178638104E+00 7.025238979444E+00 -6.492940540429E-01 2.785558634141E+01 2.774425612531E+03
 -3.917729042736E-01 -1.991119727567E+00 9.926595862835E+00 1.236713020857E+00 -3.232181806922E-01 1.029776757149E+01 -1.119647649766E-01 -5.574999508999E-01 5.085115866721E-01 -1.094055396866E+00 1.010225963134E+00 3.327830178033E-01 -4.148549500441E-01 1.007543457062E-01 1.018482537927E-01 3.251617110397E+01 1.748320221209E+01 -8.376416470810E+01 1.730001305589E+00 5.359127667700E-01 5.256517120364E+00 1.194130078914E-01 -1.660793712069E+00 2.292635645785E+00 -1.723953947499E-01 1.849386947647E-01 -5.662925862154E-01 2.943992062562E-01 -7.035139236858E-01 -1.535290391146E+00 -4.041733258976E-01 -7.482403069582E-01 -1.522810666546E+00 4.043127721649E+00 -8.597311992105E+00 -1.616086796619E-01 -8.164378734236E+01 1.351718070678E+01 1.963345933119E+02
 -3.380234625960E+00 -2.863890943851E+00 1.145219421199E+00 -3.093931204458E+01 -2.886228257911E+01 2.087956496712E+00 -2.240382367457E+00 -1.893767905857E+00 -6.515656160539E-01 -3.783893432276E+00 -3.647551516906E+00 1.307341953523E+00 -9.023477981159E-03 -1.595674547750E+00 -1.047647546695E+00 5.931722395079E-01 -6.712230238134E-01 -7.929020186120E-01 1.901955381152E+00 2.582712646230E+00 -1.806471775730E+00 4.994255624016E+00 6.797058501324E+00 -2.748875149079E+00 1.887122038087E+00 9.398957847242E-01 9.385398472873E-01 -1.642426032689E-02 3.674420707979E+00 -2.683745231729E+00 5.308955158304E+01 -4.933048065975E+01 -6.993929534422E+00 -1.186770914274E+02 1.057584961458E+02 4.930393862480E+01 2.449502554894E+01 5.485600405828E+01 4.343224013630E+00 2.649222021411E+03
 3.557536843209E+00 -5.208929829789E+00 -7.712203463426E-01 3.301083955084E+01 4.852536775544E+01 -6.106972222712E+00 -7.660249859375E-01 -3.275695613376E+00 9.586926331994E-03 -1.497967615453E+00 -7.019580193276E-01 3.734231020571E-01 9.260119635845E-01 -2.480016594577E+00 -3.982507339746E-01 -4.518539477506E+00 4.117935554900E+00 3.233719517733E-01 -1.552732129348E+00 8.224920169736E-02 1.099125070600E-01 2.045776553406E+00 4.389564890240E+00 4.746722987050E-02 1.550929543682E+00 1.842764175182E+00 -2.995575798183E-01 -1.053109857333E+00 3.531317514284E+00 -1.120744772872E+00 -4.915178390053E+01 3.304137063106E+01 3.594556455854E+00 -2.290071287755E+01 4.574654564559E+01 -4.476708650477E+01 -7.385320395257E+00 -3.428503215075E+00 4.379235777653E+00 -5.506508909291E+01 2.705893476798E+03
 4.728663992417E+00 -4.256639707279E-01 7.368576310513E-01 2.704322925640E+00 -9.919322227155E+00 7.081986902499E+00 1.463429435365E+00 -2.122552109152E+00 -3.429017375360E-01 -3.621484194916E-01 -2.596308772391E+00 3.192680681033E-02 -8.096254144774E-01 -2.244890673964E+00 6.555359522060E-02 -6.447676183062E+00 1.479512404944E+00 -9.195462749998E+00 -1.187356147378E+00 1.610152204985E+00 -1.317414287917E+00 4.911637187380E+00 1.679981415396E+00 4.405448150835E+00 -6.792958216038E-01 2.540917825590E+00 4.766285640656E-01 2.203824877490E+00 1.612070481927E+00 2.674279508791E-01 -5.117516279435E+00 -2.669900317483E-01 1.677837103406E+01 3.236677362078E+01 -1.635287689494E+01 -9.558308577672E+00 2.301894513148E+00 6.415511971054E+00 5.334147077642E+00 -3.496430116943E+02 1.008642878911E+02 2.459686368997E+02
 -7.102710165417E+00 1.202973191718E+01 1.889875796035E+00 6.062558965165E+00 1.148272043404E+01 1.374034829877E+00 2.366127496647E+00 5.876514642122E+00 -6.265067027436E-01 2.704470501779E+00 6.630360082502E-01 4.449746366809E-01 -1.949609093739E+00 4.475631166560E+00 -6.738279877978E-01 1.235928255230E+01 -7.173261272402E+00 -1.049161054587E+00 2.321647109598E+00 -7.214794283272E-01 -2.197647976623E+00 -6.657990027195E+00 -8.704243057944E+00 -2.613231056086E+00 -3.121494177317E+00 -3.745771821900E+00 1.209715095790E+00 1.934925112082E+00 -5.974987548162E+00 -1.427728475934E+00 -1.161064701193E+03 3.961358932040E+02 6.692401705529E+01 -4.392579781067E+02 6.545430970810E+01 1.407471308439E+00 5.844196272599E+00 1.942728091840E+00 6.491830168193E-02 -1.249811449153E+01 9.047422823588E+01 2.707449175528E+01 2.350280121543E+03
 -6.758185820632E+00 -9.459659207945E-01 1.119413179871E-01 -1.805683612984E+01 1.242557167573E+01 1.085684634362E+00 -3.325067106141E+00 -9.537032347876E-01 -1.347611738145E-01 -4.796606967784E+00 -2.094470885889E+00 1.317040695717E+00 -1.455122955339E+00 -8.712844217759E-01 -1.759778781287E+00 8.287689214615E+00 -6.863042508081E+00 -3.071240538372E-01 5.811116181817E+00 2.723322666655E+00 -9.833454379749E-01 8.524949927726E+00 3.501771748404E+00 -1.888943972932E-01 1.467195542501E+00 9.733343113083E-01 7.471334008989E-01 1.699278336945E+00 1.083238643260E-01 2.584887510416E-01 5.121332383691E+02 -7.142193500082E+02 -9.793634040970E+01 -2.157966689349E+02 -1.426658061851E+03 -2.448134646372E+02 -1.282787328314E+01 -6.929005809184E+00 -9.206024839646E-02 -8.797680714383E+01 4.873466841351E+01 2.193192493576E+01 -2.172268513256E+02 2.491589146836E+03
 -2.502865209312E+00 -1.251993546911E+00 3.593426092324E+00 -6.383920915635E+00 4.589908080877E+00 1.750416289365E+00 -1.860820179832E-01 1.324557701462E-01 -4.784157474748E-01 -1.231142476421E+00 -8.246534575807E-01 3.523523790197E-01 -1.025291050308E+00 1.496258440801E-01 6.645813998434E-01 3.982337671718E+00 -2.867540204623E+00 -9.261508148986E-01 2.080841343600E+00 1.572784998880E+00 -2.010170980575E+00 1.464361337778E-01 -8.217176612974E-02 -6.035587934909E+00 -5.085626466833E-01 3.557498817452E-01 3.953956725404E-01 1.315566860119E+00 3.345898353950E-01 -4.465698402115E+00 9.828774458335E+01 -8.041782710897E+01 -1.164293440816E+02 -1.178370909028E+02 -3.553033665776E+02 -1.550812976793E+02 -9.995737941417E-01 -3.819234663738E+00 9.226841092066E+00 -2.228972585173E+01 1.672475228957E+01 1.503742032869E+00 5.612678320071E+00 5.176139585018E+02 3.984724759719E+02
 -1.333919464810E+00 4.801020544848E+00 1.582836003452E-01 4.759962170282E+00 4.325010595602E+00 1.433459803731E+00 1.518424547564E+00 2.807822334505E+00 -1.181841474781E-01 2.073683299734E+00 1.538300969556E+00 -2.435476482993E-01 -4.115703257335E-01 2.293480321455E+00 3.023548749093E-01 -1.575567984675E+01 3.363789688768E+01 1.964987449903E+00 6.175561859390E-02 -9.040824903386E-01 2.663995714986E-02 -4.529329299759E+00 -4.492931105980E+00 1.301713150075E+00 -1.671866683106E+00 -1.998821713591E+00 1.926298813825E-02 2.149047169167E-01 -3.012151579542E+00 1.088420810976E+00 -1.203846106229E+03 -4.524294585496E+02 2.854610237268E+01 1.747616069751E+01 -7.893544616730E-01 4.609611464344E+01 -1.156414125042E+03 4.272513005796E+02 3.912689209567E+01 -4.156240802471E+02 -7.981330889145E-02 2.490137197091E+01 -7.151552350409E+01 -1.777549205028E+01 -6.387842688591E-01 2.706843188773E+03
 -2.761557799609E+00 5.599109834138E+00 8.898894651919E-03 2.208645767356E+00 6.541720326933E+00 -3.776705888450E+00 1.090935260251E+00 3.249117959666E+00 1.942101069583E-01 1.593553636638E+00 1.007277559815E+00 -3.383496904960E-01 -8.193558764705E-01 2.414542314373E+00 3.497588401239E-01 -2.841008985041E+01 5.322988468615E+01 2.821020548169E+00 1.235603549272E+00 -4.234132071129E-01 8.143933355359E-01 -2.188710035427E+00 -3.995117627195E+00 1.423000908095E-01 -1.685658486945E+00 -1.953162608680E+00 -1.027094450682E-01 8.893531465953E-01 -3.378690153137E+00 1.352464525342E+00 -3.910667765990E+02 -7.613023204797E+02 -1.340983798112E+01 -1.155159039971E+01 2.285537597382E+01 5.427805943165E+01 4.271535102332E+02 -7.050623181546E+02 -2.820791099075E+01 -1.414124218433E+01 -1.415955715383E+03 -5.032801734377E+01 -4.198347636709E+01 2.680571707257E+01 -9.587160934482E+00 -5.910285538055E+00 2.735769761688E+03
 -7.157592831150E-01 -5.487649965771E-01 5.519200191025E+00 -3.583887638027E+00 4.971568095530E+00 -8.971369107777E+00 -2.818900771035E-01 -9.635994267436E-01 -3.447237809815E-01 -1.399066182765E+00 5.071678940772E-01 -3.024125376127E-01 -2.633610489564E-01 -3.771783676673E-01 3.543439901144E-01 4.810430477503E+00 -3.158997463634E-01 8.041999462754E+00 1.536266561293E+00 6.730251908885E-01 -6.666619341798E-01 -2.529285636306E-01 -1.268475447067E+00 -4.998997497453E-01 6.764210503268E-02 7.007452648811E-01 3.346205970339E-01 5.323685064508E-01 3.816420463444E-01 -3.534574105811E-01 1.903901468469E+01 -1.972569394470E+01 -9.057700890978E+01 -1.690406743008E+00 3.494560578371E+00 -9.960563883875E+00 4.415718932694E+01 -2.666505040689E+01 -8.112108060011E+01 3.166149103965E+01 -3.916311913187E+01 -8.233223264006E+01 3.187241768642E+00 4.365529293988E+00 1.890168348537E+01 -9.091840549264E+01 8.700494008251E+01 1.984259676481E+02
 7.934909841730E+00 9.565398689101E-01 -1.170301520828E+00 2.600865678767E+01 -1.307538750145E+01 3.092136648038E-01 3.719797166295E+00 6.265219632399E-01 5.453881647293E-01 5.971592738531E+00 4.284608260645E+00 -2.285194649736E+00 1.015193524788E+00 8.113164194489E-01 2.016488377338E+00 -6.489646337963E+00 1.172858667082E+01 3.489691777481E-01 -6.007285053118E+00 -3.670924242071E+00 2.077414808579E+00 -1.020599084922E+01 -9.099481570777E+00 3.119894597943E+00 -2.072664295955E+00 -2.679294192265E-01 -1.059932865122E+00 -1.002161210680E+00 -2.353552192372E+00 2.447169595935E+00 -1.695131430423E+01 -4.800533038569E+01 1.095275664278E+01 -1.138079316192E+03 -6.023464577190E+02 5.788637947921E+01 1.647141994301E+01 7.453443225191E+00 -2.183418005835E+00 -1.157034615822E+03 4.167965432923E+02 1.695134552597E+02 6.757290460841E+01 2.079333064488E+02 6.797119148633E+01 1.963883958673E+01 2.837353795091E+01 -5.133732582733E+00 2.688082868160E+03
 5.474548639932E-01 -1.555777428650E+00 1.050077523536E+00 2.810867788334E+00 -4.380669741276E+00 9.172380836303E-01 -1.002578207007E+00 -1.480542738833E+00 -7.000879732344E-01 -2.994242921772E-01 -4.394081071944E-01 2.071076411200E-01 1.079216960653E+00 -1.114328859353E+00 -1.220395504383E-01 -2.525296990361E-01 5.415462610521E+00 -1.098719630081E+00 -1.789051115481E+00 -5.619057832254E-01 -1.726666937453E+00 -1.681211540987E+00 1.725869914783E+00 -1.477144963916E+00 1.587727698432E+00 7.126242444729E-01 6.539130944085E-01 -1.503792114448E+00 2.435629022372E+00 -1.892465901654E+00 2.066750726889E+01 -1.099029239890E+01 -1.885832624108E+00 -4.313257408630E+02 -7.011994457208E+02 9.170170288102E+01 -1.185017833833E+01 -5.455648315702E+00 1.963699321372E+00 4.403858225894E+02 -8.162693781152E+02 -1.010865080224E+02 -6.741113288362E+01 6.788806101812E+00 6.035189362570E+00 7.840397966303E+01 2.287099709232E+01 -1.565892788661E+01 2.255147030588E+01 2.422290945596E+03
 -2.216984688524E+00 1.242780505590E+00 7.753718584925E-01 -4.407441379335E+00 4.038880881383E+00 5.007942823912E+00 -3.290695573063E-01 1.096342248431E+00 -1.992880814083E-01 -9.388971950715E-02 -5.507023664625E-01 1.077864036457E+00 -2.657937675073E-01 7.959801671595E-01 -6.294324074495E-01 1.343540591279E+00 -4.378042094705E+00 -1.951263110636E-01 1.095884343289E+00 1.730076033160E-01 -1.305972931382E+00 4.392209853817E-01 1.151622384221E+00 -1.793431577769E+00 -1.210102235412E-01 -8.202597286516E-01 1.663673030274E-01 8.153361467508E-02 -5.159334028220E-01 -1.022004744128E+00 1.241596997662E+01 8.075692830651E+00 -1.473928548467E+01 1.784981201595E+02 1.631629885258E+02 -8.311104209366E+01 5.061036085422E-03 -1.019918892693E+00 5.337412165173E+00 1.915227015636E+02 -1.054844453502E+02 -1.135628474955E+02 3.728280998155E+00 -4.448622586155E+01 1.375819606656E+01 -9.391457880193E+00 -7.924280196485E+00 1.373224077018E+01 -4.563845246777E+02 1.063460978596E+02 3.128731344333E+02
 1.121157389904E+00 2.976478079030E-01 1.930367975039E-01 -1.230044013199E+03 4.604345104127E+02 4.165635679394E+01 6.964748170745E-01 1.843697173805E-01 -7.453619925196E-02 1.089547869178E+00 5.163188242834E-01 -3.807962196615E-01 2.933123532572E-01 1.050914635219E-01 7.337790937832E-02 4.086980113856E+01 -7.799561258024E-01 -7.878550978592E-01 -1.122214071108E+00 -6.354703753391E-01 -4.962611225044E-01 -2.184413365028E+01 3.634657560897E+01 -1.214948648482E+00 -3.668647450773E-01 2.272544022957E-02 -8.610592653003E-02 -1.007031308063E-01 -9.928431403051E-02 8.214978692355E-01 -5.522400766321E+00 -2.175474442650E+00 -1.145427955609E+00 3.045498741459E+01 -1.949021925294E+01 -2.715855700289E+01 1.215208270784E+00 8.072349862406E-01 8.850509364032E-01 -1.097698668428E+03 -3.794140544400E+02 1.148001579449E+02 1.032172169878E+01 2.872489564480E+01 1.114087226336E+01 3.078850567556E+01 6.738920917077E+00 -2.482927546704E+00 -5.865743136793E+01 -3.372593704010E+01 1.305768027545E+01 2.716057472036E+03
 3.418130680134E-01 -7.772684648828E-01 8.612441951887E-02 4.753896563403E+02 -7.704149710314E+02 1.416302404962E+01 1.924198122665E-01 -1.771287873401E-01 -2.862862318016E-02 2.143028909945E-01 -4.974569021156E-02 4.182570854727E-01 5.041565706319E-02 -8.367922458670E-02 -5.087711431220E-02 6.585703294369E+01 1.109664071959E+00 -3.644376312257E+00 -2.404713188228E-01 2.807311540297E-01 -3.190884090452E-01 -3.323634160014E+01 6.013546758318E+01 7.686574668149E-01 -1.527626398997E-01 9.910394318488E-02 1.783466820599E-01 -4.519098427863E-02 1.091621886988E-01 3.485398452874E-01 -4.631740465155E+00 -2.538244565481E-01 -1.179785738600E+00 1.206999036914E+01 -7.540496101010E+00 -1.388090866189E+01 2.086007844527E+00 -6.886455375454E-01 -2.125519631640E+00 -3.673429020280E+02 -6.328950494042E+02 5.743278812025E+01 6.126737872014E+00 9.122856770103E+00 3.259602691217E+00 -6.242326082573E+01 3.291784721641E+00 4.986532149131E+00 2.083566842940E+01 5.979667468436E+01 2.703352221864E+00 -4.397064672330E+01 2.792239412308E+03
 -1.421113376892E+00 3.527900110503E+00 4.598224017426E+00 4.171121951931E+01 1.359331983498E+01 -8.690603090541E+01 2.342588942709E-01 1.654366956679E+00 -3.237513001451E-01 2.854194969877E+00 1.079770484070E+00 4.724785638512E+00 4.191710851017E-01 5.825986814783E-01 -5.014224467240E-02 8.497135477657E-01 -4.017972634319E+00 9.307867257382E+00 -1.416466676694E+00 -2.401633281126E+00 3.174470908744E-01 -1.447431108345E+00 -8.850139168528E-01 7.258398317479E+00 -1.258539705943E-01 -8.003358468685E-01 -7.330214199645E-02 -7.435545995387E-01 3.924784597543E-01 -1.711335129112E+00 7.077841714084E+00 3.563635782943E+00 -7.515207093818E+00 -7.627593404179E+00 -2.603454392850E-02 1.636869032334E+01 -5.935003073622E+00 -2.484497985573E+00 -5.632387061794E+00 1.197418548038E+02 3.968991197534E+01 -9.548668817184E+01 -5.270016771764E+00 -1.449199443551E+01 -3.738741300524E+00 -9.215329291112E+00 3.551977691628E+00 7.921647688000E+00 1.503984064722E+01 9.456382930682E+00 4.759688972510E+00 -1.836016127332E+02 -1.778226952080E+02 2.180009189782E+02