#BIOSYM hessian 1
@Type: Hessian Update
@Units
 distance: 	A
 energy: 	Kcal/Mol
#header
@natom 74

#label
C1      C2      C3      C4      C5      C6      C7      C8      C9      C10     C11     C12     C13     C14     C15     C16     C17     C18     C19     C20     C21     C22     C23     C24     C25     C26     C27     C28     C29     C30     C31     C32     C33     C34     C35     C36     C37     C38     C39     C40     C41     C42     C43     C44     C45     C46     C47     C48     C49     O50     O51     H52     H53     H54     O55     H56     H57     H58     O59     O60     H61     H62     H63     H64     H65     H66     H67     H68     H69     H70     O71     O72     H73     H74

#element
C  C  C  C  C  C  C  C  C  C  C  C  C  C  C  C  C  C  C  C  C  C  C  C  C  C  C  C  C  C  C  C  C  C  C  C  C  C  C  C  C  C  C  C  C  C  C  C  C  O  O  H  H  H  O  H  H  H  O  O  H  H  H  H  H  H  H  H  H  H  O  O  H  H 

#matrix
222
 2.966077808488E+03
 -2.677614965679E+01 3.009528577629E+03
 3.014739106093E+00 1.326743524143E+01 2.198090364554E+02
 4.275056740358E+01 7.268130923452E+01 2.342234895396E-01 2.961445367003E+03
 -9.607315601782E-02 -2.669620882404E-01 -9.439856703292E-03 -2.584115916497E+01 2.909400511841E+03
 -1.651056519290E-01 -2.277505239615E-01 9.527839628484E+00 3.556292776036E+01 1.684313641755E+00 2.148904856028E+02
 -2.082063219348E+01 3.722025367216E+01 5.513442004454E-01 -8.425397521333E-02 -2.283465405360E-01 -1.198519875166E-01 3.027909666980E+03
 -3.740551555739E+01 6.514902727479E+01 4.078750935665E-01 -7.635284754061E-02 5.990991472738E-02 8.075229870005E-02 3.702117431783E+01 2.907937504570E+03
 3.269942622928E-02 2.585201839759E-01 1.003363706893E+01 1.026186637941E-01 1.710454790107E-01 7.954318633282E-03 1.310241257127E+01 4.121289278720E+01 2.145338564737E+02
 4.194032279612E+01 -7.349265713908E+01 -9.152704354088E-01 -2.169096746452E+01 3.774424829803E+01 2.399635331292E-01 4.376732526251E+01 7.723645288373E+01 7.315538107159E-01 2.968508027453E+03
 -2.046031286155E-02 -2.114978261225E-01 1.816016093231E-01 -3.607333217647E+01 6.308546091648E+01 1.504656479600E-01 -3.910990617698E-02 -7.830916442549E-02 -1.912222089388E-02 1.314922851728E+00 3.008547613546E+03
 -9.921851741034E-02 -4.099808129741E-02 1.007712052827E+01 -4.140592042299E-01 6.894917946232E-01 9.644887685167E+00 -1.542660950994E-01 1.118088557027E-01 1.127390139036E+01 1.917487005511E+01 2.651237459466E+01 2.233656146046E+02
 -9.614827142087E-02 -9.039951539165E-01 -3.848627274482E-02 1.150709545881E-01 2.204087983790E-01 5.504949200057E-02 5.713781258075E+01 -9.178740655567E+01 -8.318152917658E-01 -2.307364530744E+01 3.910164632742E+01 2.997637603608E-01 3.399350846148E+03
 -1.303041241915E-01 -7.934225260042E-01 -1.206420446835E-01 -2.125132059463E-02 2.977554421525E-01 6.629109430841E-02 1.175533070676E+00 2.466308202718E-01 -1.329382285228E-01 -3.864476810944E+01 6.586984711559E+01 3.296875827520E-01 2.032359960809E+02 3.576845871335E+03
 -9.020970887732E-02 -9.181438605582E-03 -8.403313914742E-03 -3.700979536865E-02 -6.167722498584E-02 2.745633118045E-02 4.081388408886E-01 -6.788708071751E-01 1.218161598215E+01 -7.341903850342E-01 5.454084206681E-01 1.147857479186E+01 3.035026847154E+01 4.437121350114E+01 2.212108796895E+02
 -1.308338305144E+03 4.646663989325E+02 6.345518725953E-01 -4.987541413364E+02 -6.273763365503E+00 -1.874311862469E+00 -1.903512291466E-01 8.687114205957E-02 -2.744916928026E-01 5.159440132778E-02 -6.720609746768E-02 6.310259942161E-02 2.664675873743E-01 2.933475945703E-01 7.122176540633E-02 2.981877187169E+03
 4.568286268293E+02 -7.955573280039E+02 -1.753764596836E+00 -3.804633185168E+00 -1.474473061631E+03 -8.272703696719E-01 1.523086080149E-01 -8.897711293145E-02 -4.547132530719E-02 2.545572648879E-02 2.309607809481E-01 2.020618683365E-01 -1.680561287179E-01 -2.176638931963E-01 1.508659086585E-02 -5.523959503352E+00 2.922386595625E+03
 1.085895360393E+00 -2.378137034508E+00 -9.454991427500E+01 -3.078530414920E+00 -1.100600964957E+00 -9.009934691836E+01 1.080900521149E-01 -4.624693413696E-02 5.339936358689E+00 -2.998289290255E-02 -2.090090527982E-01 -1.006540419332E+01 -1.006333146905E-02 -6.868675129180E-02 -8.331444624572E-03 2.647527088946E+00 2.043364217472E+00 2.164456653308E+02
 -1.259009265263E+03 -4.278609067108E+02 -4.097586182184E+00 2.075760958220E-02 -8.817071390393E-02 7.465102292073E-02 -1.329187805461E+03 4.496897655088E+02 1.413273143853E+00 -5.212651633450E+02 6.889173201795E-01 -1.313580097562E+00 1.549813392519E-01 1.175603465266E-01 2.781019874256E-01 -2.158324462406E+01 -3.658729458089E+01 -4.870516849191E-01 2.982970775545E+03
 -4.270709019760E+02 -7.561430513624E+02 -5.184265966625E+00 -1.927241546224E-02 1.873214106582E-01 -8.385675448047E-03 4.625846722141E+02 -7.844219102214E+02 -7.119615869740E+00 -4.956056112857E+00 -1.554565113601E+03 -1.531709608145E+01 1.650566201763E-01 2.508483348679E-01 7.006437407076E-02 3.761126635400E+01 6.400497954447E+01 5.826451024182E-01 -2.271141429420E+01 2.961603252150E+03
 -4.936908100846E+00 -5.050419900066E+00 -9.250514503711E+01 8.185737032249E-02 1.321613950186E-01 -1.007427866977E+01 2.257505155421E+00 -7.805855715972E+00 -9.546103713121E+01 -1.857213603787E+00 -1.489185375997E+01 -9.496190371715E+01 -2.387296478002E-01 -1.193095300492E-01 -1.194609550439E+01 7.289134360222E-02 2.707132582324E-01 9.623044629059E+00 3.657233967174E+00 2.671857509245E+01 2.200960420368E+02
 -7.522993790400E-02 3.721510321031E-02 -1.692964293761E-01 -1.268708987041E+03 -4.390172709043E+02 -1.405685312231E+01 -5.021141834597E-02 2.727904819823E-02 1.213402319346E-02 -1.268887015808E+03 4.525899643021E+02 -4.924948123768E+00 1.006105394534E-01 1.525967071743E-01 -1.007268499181E-01 4.049347425381E+01 -8.484465263803E-02 6.441247928732E-01 4.418530198303E+01 -5.795011136032E-02 2.168049465309E-01 2.920277598602E+03
 -4.967314724782E-02 3.822309341108E-01 -9.100015703110E-02 -4.429389931311E+02 -7.606860972125E+02 -6.952024456704E+00 -4.440402181832E-01 7.942117466781E-02 -2.195025041203E-01 4.541208739748E+02 -7.855389139936E+02 -2.600344305580E+00 6.288762878835E-01 4.883734486018E-01 5.485757386287E-02 -7.080870994341E+01 3.514260324587E-01 -9.159883023388E-01 7.392906761580E+01 -1.656099333942E-01 4.757870394295E-01 -3.862124275893E+00 2.938906118911E+03
 2.867624467768E-01 7.675448314009E-02 -1.015699042482E+01 -1.416546902456E+01 -6.366951765806E+00 -9.145379000419E+01 -2.162265722138E-02 -6.748078054690E-02 5.327715349580E+00 -5.295292533111E+00 -2.622847283847E+00 -9.268579792807E+01 -3.965975404087E-02 -7.084922089925E-02 5.232236299829E+00 3.594283559533E-01 -1.584254903085E-01 9.843573701062E+00 9.884789641021E-01 9.319974720958E-02 1.031064183479E+01 2.191976186255E+01 1.822628204248E+01 2.136506520618E+02
 -3.838975299195E-02 -8.265235991991E-01 -1.127841913292E-01 4.164765963169E-02 4.318957904341E-01 8.342310218126E-02 -1.346930426021E+03 -4.737649252333E+02 -1.487182890300E+01 -1.564735572747E-01 1.630922652771E-01 6.938512375583E-02 -6.534457627027E+02 1.101373009547E+01 -4.790738561334E+00 3.226073438160E-01 -3.885892242677E-01 -7.292110642393E-02 -2.333656689366E+01 -4.199497110916E+01 -8.283136434564E-01 1.594849885123E-01 7.118914423423E-01 -4.022986462178E-02 2.745898438553E+03
 8.290627144433E-02 7.412660999329E-01 2.387673114566E-03 4.096664978801E-02 -4.933962680367E-01 -1.084820988761E-01 -4.971661277868E+02 -8.370125815053E+02 -1.342557265195E+01 1.160127503766E-01 4.064136727237E-03 -5.248449021864E-02 -1.977772968717E+00 -1.864979112427E+03 -2.301228139554E+01 -3.578531496410E-01 4.982763290661E-01 7.232361227427E-02 3.868844635002E+01 6.929226246108E+01 1.552083961622E+00 -2.053712723234E-01 -7.259175871478E-01 2.617132680957E-02 2.306457122242E+02 3.130670255129E+03
 -3.982812693901E-02 -5.362958675676E-02 5.446776734667E+00 7.057008806457E-02 -9.055811679421E-03 -4.325453196404E-03 -1.544399979230E+01 -1.373785437318E+01 -8.984256689736E+01 2.646326712411E-01 2.979111871920E-01 -1.178193395194E+01 -5.023213291758E+00 -2.231099133538E+01 -1.058981764933E+02 -5.629788513832E-02 7.966784558927E-02 -6.520919376465E-03 2.673168856379E-01 8.502139084644E-01 1.207633445361E+01 -4.502728736205E-02 -8.330645494853E-02 -2.689610396975E-02 2.463938893293E+01 3.850487253167E+01 1.930485445032E+02
 1.786636251349E-01 3.369149848437E-01 8.711135809839E-02 -5.975150185562E-02 1.350534968048E-01 -1.273266001486E-01 -9.025392052771E-01 4.003830293640E-02 4.816357600018E-02 -1.309444790328E+03 -4.497948543510E+02 -1.262436451065E+01 -1.311191925950E+03 4.340855824943E+02 -4.429000808584E+00 -1.014088444506E-01 -1.451737374984E-01 6.261601044912E-02 4.433297886091E+01 -1.394425590441E-01 5.618490836584E-01 -2.239323921748E+01 -3.786856258398E+01 -5.138635282106E-01 5.352218480483E+01 -8.823175086926E-01 3.309497221746E-01 3.036538034662E+03
 9.794148847630E-02 9.322188549623E-01 4.323541610405E-02 -2.643866020771E-03 -3.478051641975E-01 -2.360872259740E-02 -1.430213793723E+00 2.285653129639E-01 1.109803770719E-01 -4.530899419389E+02 -7.967914453067E+02 -9.437172748745E+00 4.475327329652E+02 -8.416479626029E+02 -4.532258530959E+00 -3.119695085288E-01 2.090813086232E-01 1.324455206984E-01 -7.598992344522E+01 -2.068155827561E-01 -7.805652702368E-01 3.845752656591E+01 6.420071096670E+01 7.754428442521E-01 9.048802643769E+01 -2.312966145164E+00 2.743135674596E-01 9.687626231374E+00 3.157943606441E+03
 4.343485904179E-02 -3.375015434746E-02 5.171104567521E+00 -4.149387476150E-02 -2.020799043793E-02 5.121872748280E+00 1.392290399694E-01 1.806811211723E-02 -1.186176733652E+01 -1.221583932452E+01 -9.285437285383E+00 -1.004405518007E+02 -4.552744040497E+00 -4.998330622001E+00 -9.717573296255E+01 -1.018509673256E-02 -2.538069760090E-02 2.408852358962E-02 -7.423963434181E-01 -1.408570632623E-01 1.055370397408E+01 5.022740791412E-02 1.537966177858E-01 1.094755996114E+01 1.508373007062E+00 4.985112435894E-02 1.215823357842E+01 1.981526539142E+01 2.694931228822E+01 2.287347430625E+02
 -1.279771013693E-01 -1.111927566093E+00 1.233462052512E-02 2.986921657088E-03 -6.065385194734E-02 -3.272811144946E-02 1.457995335627E+00 2.354951881163E-01 7.302414086584E-02 -4.628419873410E-01 -7.540095324726E-01 1.365187667449E-02 -1.777184361630E+00 -2.004626419392E+00 -1.576827941786E-01 2.612332189901E-01 2.535858836736E-01 1.467099762147E-01 6.545627346481E-02 6.092279648093E-01 -8.246731759678E-02 7.446328373447E-02 4.860676770645E-01 3.283572489060E-02 -1.073456210634E+00 1.189327710636E+00 1.581782077475E-01 1.268062753653E+00 2.172254788332E+00 8.335327347045E-02 3.059587275916E+03
 -5.031698716288E-03 -5.876716653415E-01 -2.580305143752E-02 4.919175190553E-01 -5.250449812732E-01 -3.454043888780E-02 5.301921796925E-01 3.041561545053E-01 -4.030958287755E-02 -1.345049729857E-01 -6.026516197651E-01 -4.255459567349E-02 -7.591678250893E-01 -4.367297045030E-01 3.738965754613E-02 -1.545027073147E-01 2.492497865413E-01 -1.381008193500E-01 -1.022577915184E-01 4.446480160573E-01 2.703197161542E-02 -7.696318020066E-02 1.252836291621E-01 -4.827450403208E-02 -2.147262299279E-01 4.942335303339E-02 -6.029255971792E-02 6.604557307168E-01 5.403194416808E-01 -2.984154869689E-02 -3.345674102535E+01 2.928419541159E+03
 2.677812885070E-01 1.164761213129E-01 -1.113059646707E-02 -3.795029791730E-04 -5.268775800179E-01 7.600648299765E-02 9.933757039618E-02 1.701740909994E-01 2.635108398204E-02 2.827781081457E-01 -6.797367943295E-02 1.456729994604E-02 2.790873992170E-02 6.588238237740E-02 3.202936672564E-02 -7.093605242882E-01 3.517898910153E-01 5.165708440300E+00 -2.969746842673E-01 -1.498856912917E-01 -9.569167562061E-03 -1.057018039334E-01 2.192629628554E-01 -1.655028935814E-03 -8.068181996263E-02 -2.383838195982E-01 2.415314961824E-02 -1.200535909657E-01 -1.088760420339E-02 -5.658714629919E-02 1.383514320903E+02 -1.506639624580E+02 2.384931415426E+02
 -2.032642667576E-01 1.150632761341E+00 9.314011168570E-03 -6.292672121491E-01 -2.149072158101E-01 -2.489695523069E-02 -1.655008016199E+00 2.349515853989E-01 5.378395088867E-02 -4.522946049878E-02 -4.592580221456E-02 1.387110342311E-02 2.359922586052E+00 1.289628238811E+00 -2.645119990898E-02 -7.909936783150E-02 3.736705420494E-01 9.213759074579E-02 -3.697024244341E-01 -1.010170076924E-01 -8.850915852902E-02 -1.267481048716E-01 -9.792772675759E-01 1.023959236699E-01 2.988832324095E+00 -2.529335493204E+00 8.478354254323E-02 -1.591943988292E-01 -1.536078768957E+00 9.654971504165E-02 5.095883170283E+01 8.822262240208E+01 3.467694594966E+00 2.797802039579E+03
 1.489334290746E-01 7.121503750218E-01 -9.593629178765E-02 -6.751711271658E-01 1.370685739950E+00 1.732027089026E-01 4.851356980405E-02 -7.122519489033E-01 -5.588050666042E-02 6.142407651661E-01 1.358739872556E+00 5.816001468074E-02 1.011162515967E-01 1.931538939381E-02 8.095945408539E-02 3.003413414664E-01 -1.410696082751E+00 -1.936967930770E-02 3.848912574984E-01 -1.128585256659E+00 9.760147066962E-03 3.921419900799E-01 4.352058431439E-01 -4.124252055551E-02 -1.527372136902E+00 1.891886987959E+00 4.747635983268E-02 -1.451280169466E+00 -2.116334596290E-01 -1.129517936280E-01 2.245838677788E+00 3.150800365254E+00 5.911111812870E-01 2.879293549722E+02 3.020724692809E+03
 -2.856626269876E-02 4.971061326698E-02 1.104127941257E-02 1.139284407054E-01 5.472344013914E-02 -8.152656840071E-02 5.554881495913E-02 1.331120813524E-02 -1.511128979032E-02 1.300831549455E-02 5.355328089922E-02 -1.460960343311E-02 -6.022157806802E-02 -4.497168151323E-02 -1.299572296919E-02 -4.530103120516E-03 -1.310864953753E-01 3.963503931240E-02 -2.069385717092E-03 -4.970984377180E-02 -1.517404774458E-02 -5.905586654353E-02 2.888712595116E-02 1.078109837726E-02 -1.027000007063E-01 1.862153993822E-02 -2.148926316742E-04 -9.233057668109E-03 8.037999131074E-02 5.280827584457E-02 3.789818364108E+00 7.530395532467E+00 1.486503361538E+01 1.594993945217E+02 -1.567680854529E+01 1.725135116666E+02
 -2.223526927052E+01 -3.829197626957E+01 1.843700736941E-01 4.151092817375E+01 -1.655947218705E-01 -4.598861351884E-01 8.901954755171E-02 -5.708424756270E-02 1.193459495751E-01 -3.437744179633E-02 3.867854723080E-02 -3.171843568687E-02 -8.295223359691E-02 -4.365675246608E-02 -3.612109517440E-02 -1.305401184629E+03 -4.482753857528E+02 -1.064547413303E+00 2.214683461166E-02 2.157361942276E-02 1.093994339405E-01 1.230295547561E-02 1.330349979010E-02 -7.114660239117E-02 -1.121111030719E-01 9.404452642011E-02 -1.647076873920E-02 5.604323965662E-02 5.031706339379E-02 -6.297145754971E-03 -2.102694844166E+01 3.695599838017E+01 3.638103100570E-01 2.496882595509E-01 -9.825160436120E-03 -1.348382431654E-01 2.935046167389E+03
 3.891284408933E+01 6.582933864123E+01 -2.790437506745E-01 -7.236340083329E+01 2.755436469068E-01 -8.223416721386E-02 7.382843666252E-01 3.966246230400E-02 -1.050512047104E-01 -8.857738335796E-02 -2.588275968909E-01 -5.205268703923E-02 -9.592644373451E-01 -7.717387583952E-01 -3.203116525437E-02 -4.563461169146E+02 -7.796088132032E+02 2.061484607243E+00 7.801183940438E-02 1.856996665888E-01 -6.590996336521E-03 8.122796936423E-02 3.117398376785E-01 -7.947569975303E-02 -8.580754759066E-01 7.741411942043E-01 -1.910470959010E-02 4.185697716353E-01 8.567653892530E-01 -5.610581515337E-04 -3.743757362622E+01 6.307989066604E+01 -1.033622098779E+00 1.231192379238E+00 9.050464472064E-01 -5.152807463301E-03 2.557312225451E+01 2.978134527986E+03
 3.918247602743E-01 4.821731223992E-01 1.132873301807E+01 8.231109713602E-02 -5.282098559191E-02 1.007661898124E+01 1.139019087946E-01 1.687860500158E-01 3.169634187169E-03 2.261180988445E-01 -1.532840152570E-01 4.339960960509E-03 6.214114690876E-02 2.495347143657E-02 1.303635247273E-04 -2.268353598084E+00 6.864349490362E-01 -9.377565376115E+01 -3.376425265650E-01 -8.263795503285E-02 5.175216615548E+00 -5.720358439502E-02 1.992216029814E-01 5.020292537354E+00 3.623263823980E-02 -5.604251219427E-02 1.270410982250E-03 -4.114834144570E-02 5.115523552320E-02 1.073438646498E-03 1.502188307228E-01 5.241828674043E-01 9.348459990040E+00 -7.199341989007E-02 3.850974270439E-02 -4.507834454015E-02 2.041997758762E+01 -1.524073179386E+01 2.168632766810E+02
 -1.389204302963E-01 -2.474562823178E-01 1.841147834592E-03 -2.080740611385E+01 -3.429205885203E+01 -5.124105784148E-01 8.358346861448E-01 -1.790430223312E-01 6.748032214660E-02 2.208642990874E-02 2.958692259977E-01 7.246670429608E-02 -9.980020287463E-01 -1.239196390585E+00 -5.826885996453E-02 2.681160036448E-01 -6.035076712407E-01 5.266887439750E-02 2.439828344698E-01 -2.703819502106E-01 -7.081608075973E-02 1.267455910796E-01 5.608382029076E-01 -3.043999614518E-02 -1.411690391723E+00 1.661262061261E+00 1.579460883435E-01 -4.222557696018E-02 1.276883816446E+00 1.597091600963E-02 4.304783083249E+01 -7.508061790492E+01 8.447397215562E-02 -2.532958941318E+01 4.072692388151E+01 -2.211710055284E+00 4.261092798679E+01 7.227594273642E+01 -1.009305583873E+00 2.975706090532E+03
 -1.596156140961E-02 -4.989843149924E-01 6.932918128528E-02 3.608098463195E+01 6.094658828416E+01 1.092536406792E+00 1.882761379766E-01 1.300716790953E-01 2.889118930716E-02 -2.126438155697E-01 -4.058725062357E-01 -2.153079064176E-02 -3.598625208517E-01 -1.172520805486E-01 -3.401687442379E-02 8.132638796170E-02 6.670113652031E-01 3.049704885528E-02 -1.508092410299E-02 4.422422243160E-01 8.222278530940E-02 -3.086437988564E-02 -1.054005137591E-01 4.047320173950E-03 7.520325924255E-02 -2.186001840810E-01 -3.920264350003E-02 5.042589396758E-01 1.635696438062E-01 4.990193730986E-03 -4.294293101003E-01 -2.250639067390E+00 1.459361523438E+00 -4.552198572076E+01 8.366253895798E+01 -2.297302809568E+00 1.303464180388E-01 -4.341488724852E-01 -1.717577383816E-01 -7.234443897872E+01 2.934332591057E+03
 -4.079218695690E-01 4.986800128853E-02 1.135777256972E-02 -5.163020972618E-01 3.469905237627E-01 8.830035137667E+00 -1.612327470621E-01 1.440741601007E-01 -3.631567871499E-04 4.184594340942E-02 4.895472950064E-01 -5.092221851228E-03 3.707681881522E-02 1.893071796444E-01 -3.684956510200E-02 6.588399702273E-01 6.384513377854E-02 -9.821252827579E+00 1.350625387225E-01 -2.861709753033E-01 -1.240206161377E-02 -6.623452298336E-01 -2.197946919836E-01 4.792973315816E+00 -6.775908150041E-02 -8.190875297815E-02 -1.911743487857E-03 -3.396267516001E-01 -1.649151122314E-01 3.846959709163E-02 9.286253604811E-01 -1.852608441879E+00 1.218884084937E+01 -1.472022313139E+00 2.164984250065E+00 1.491702309507E+01 2.830020553976E-01 1.829662221648E-01 9.350921501730E+00 9.932818984353E+01 -4.581134091589E+01 2.148576130494E+02
 -2.132921309743E-01 5.544466040162E-01 1.365014269342E-01 1.086557696078E+00 -2.593546990880E+00 -3.088399115716E-01 -2.254483602137E+00 1.352724798055E+00 5.848861050387E-02 -6.374200281241E-01 -1.845138873537E+00 -1.176284692015E-01 2.762974587854E+00 2.338314752751E+00 -1.021727920259E-01 -1.094732189764E+00 2.276335134188E+00 3.590301635321E-02 -1.093896070670E+00 1.342617675586E+00 -1.329533859311E-02 -9.617152953148E-01 -1.673765247601E+00 5.957925732064E-02 5.515224024179E+00 -5.843666519675E+00 -1.549018148612E-01 1.445855202515E+00 -2.268584266473E+00 2.056816836918E-01 -1.395277010979E+03 4.700278516986E+02 -1.098085400153E+02 -5.588893858832E+02 1.871267513163E+01 -4.144509859901E+01 5.584537798635E-02 4.607752775868E-01 -3.323904380519E-01 6.674422463745E+00 -5.442594138196E+00 1.183605761425E+00 2.771880404934E+03
 -1.559245693937E-01 -2.127684686618E+00 1.468523479081E-01 1.282352203524E+00 -1.853836367455E+00 2.975365963298E-02 1.350669089476E+00 9.999348793366E-01 1.374042861938E-01 -9.739780160849E-01 -2.293685508164E+00 -2.578324385255E-02 -2.097383055942E+00 -1.474434277577E+00 -1.683995925601E-01 -2.395525652894E-01 1.952839256266E+00 -1.931145898269E-02 -3.197993676344E-01 1.968202958642E+00 3.258377700935E-02 -3.879084875336E-01 2.883524723436E-02 9.027268754603E-02 2.501494261024E-01 -7.806974759551E-01 -3.419552475317E-02 2.659127261346E+00 1.868285491420E+00 9.770126215648E-02 4.959926277481E+02 -8.270063028637E+02 5.224927802164E+01 -3.095586581066E+01 -1.695483394144E+03 2.360519507191E+01 -1.679595616254E-01 -2.146982480783E+00 4.024858756186E-01 4.426815766251E+00 -4.831726807284E+00 2.933953645724E-01 -1.336844969417E+02 2.977102718948E+03
 5.178099772779E-03 -5.968937298252E-01 5.693961602355E-02 4.316698783815E-01 -8.043052866141E-01 -1.872599374041E-01 5.507880530870E-01 7.206230541674E-01 2.549837356374E-02 -4.911889693380E-01 -6.603642512070E-01 1.300976834224E-02 -6.215125535347E-01 -8.992109549133E-01 -3.901216660951E-01 -8.285189524857E-02 8.313685010628E-01 1.310762555031E-01 -1.819086379120E-01 8.308503989397E-01 -1.123320949306E-02 -5.763179862625E-01 5.922485810439E-02 4.169105571456E-02 6.656027048888E-01 5.721160327407E-01 4.244886461199E-02 8.966914536882E-01 1.077982900889E+00 2.495224832130E-01 -1.144366826456E+02 4.786238685689E+01 -1.122140272518E+02 -4.134980314541E+01 2.659012674693E+01 -9.473280605743E+01 -9.430960848640E-02 -1.244315759283E+00 5.612049307517E+00 1.210225528957E+00 -2.020856815101E+00 -1.201118453428E+01 2.902118542343E+02 -7.940297068066E+00 3.102512581198E+02
 2.382272804548E-02 -6.934421293562E-02 -1.817804312421E-01 -1.663116024507E-02 2.642027813006E-01 1.121001745542E-02 2.661869303712E-01 -4.168683564246E-02 -9.038339212222E-02 -3.488478077248E-04 1.789930870633E-02 -2.085578595501E-02 -2.900040843650E-01 -2.751818697614E-01 1.762959706644E-02 -2.110060781485E+01 3.668808009436E+01 -9.514322783139E-01 6.177174579121E-02 -2.010115766964E-02 -6.140771669270E-02 6.486812211151E-02 1.225592868436E-01 -7.686704383527E-02 -3.697021303482E-01 4.190992870176E-01 -3.285496961014E-03 2.990752977831E-02 2.802003660687E-01 -7.500146860585E-03 -1.310215472673E+03 -4.470998973443E+02 -2.693846367049E+01 3.296085815214E-01 -8.149397090759E-01 6.951708681544E-01 -1.236792327435E+03 4.296045329889E+02 -1.758978444261E+01 -5.149493232547E+02 -8.959224852888E+00 -1.075325225206E+01 -2.214141681787E+01 -3.965864245432E+01 6.869550904195E-01 2.938817040893E+03
 1.939960526735E-02 3.121941408188E-01 8.702596094178E-02 -1.998175692625E-01 4.547891021907E-01 3.926532899613E-01 -1.028231203169E-01 -1.723811028198E-01 4.650114513941E-02 1.735343230151E-01 3.812376218820E-01 8.042593973216E-02 2.159327202678E-01 -3.167921365088E-02 4.163045636223E-03 -3.616166088653E+01 6.269526120350E+01 -1.192792742301E+00 7.816102123549E-02 -3.329471356226E-01 -5.711520271764E-02 1.171022988368E-01 6.637526667846E-02 8.609017238515E-02 -1.790384371252E-01 4.541730046358E-01 8.394486371305E-02 -4.486792777335E-01 -5.366314181084E-02 4.863626082723E-03 -4.595278944817E+02 -7.841171340063E+02 8.896755115838E+00 -3.067147089916E-01 -3.240098046113E+00 -4.419849985131E-01 4.287130545554E+02 -7.546023027671E+02 1.078754010830E+01 5.398881631493E+00 -1.559674842799E+03 2.776310311478E+01 4.511332695939E+01 7.568178358501E+01 1.135986241327E+00 1.767783478436E+01 2.966881771446E+03
 8.810270726567E-02 -1.945605318333E-01 5.123733494904E+00 2.854572743461E-01 -4.390380030199E-01 -9.839552206354E+00 1.250302291059E-01 6.411504010840E-02 -6.157686637034E-04 8.666945572417E-02 -1.559200804901E-01 -2.904855533450E-03 -7.188762658179E-02 -4.943160369640E-02 1.596750125289E-02 -3.691147933415E-02 -4.408410239694E-01 9.708523091386E+00 -1.679340204645E-01 4.109084944713E-02 -1.056712529167E-03 7.144424609830E-02 2.124886636191E-01 3.324683506124E-03 -1.102795984231E-01 -5.039119234052E-03 -1.881570762839E-03 8.103977733530E-03 1.228950855145E-01 -4.142930544252E-03 -2.740142915320E+01 1.141463939645E+01 -9.668979895759E+01 -5.770441679353E-02 -1.091772501499E-01 -1.239681228841E+01 -1.992798591620E+01 1.136796575235E+01 -9.089667851236E+01 -1.112633507708E+01 2.502235234827E+01 -9.411297465437E+01 -3.701884008006E+00 -6.773399928576E+00 1.314465987095E+01 5.347829382411E+01 -4.314419533452E+01 2.190377431166E+02
 7.624212146560E-02 -6.585340055378E-01 6.190622258625E-02 6.779436230202E-01 -8.692374042929E-01 -2.043031221505E-01 2.070615608425E-01 3.451038638892E-01 -8.133536119681E-03 -2.544544873816E-01 -7.590774482009E-01 -5.602011292464E-02 -4.469086520748E-01 8.474710705238E-02 3.394439136809E-02 -2.643444471162E-01 8.177961873053E-01 -3.350979636395E-02 -1.648787111114E-01 6.810047279395E-01 6.549995810315E-02 -1.692927216114E-01 -9.832258400072E-02 -2.657702571642E-02 2.815733674809E-01 -6.956615446853E-01 -1.270481166507E-01 7.354718561432E-01 6.383678463220E-02 -3.377236965456E-03 -1.583098934462E+00 -2.701146217642E+00 5.760035324650E-01 -1.502212281142E+03 -5.400789059678E+02 -7.688595326771E+01 -7.221780696858E-03 -7.217621149565E-01 -2.009003331709E-01 -1.402854954901E+03 4.760091870769E+02 -5.895781517196E+01 4.713498572768E+01 -1.045115793805E+01 2.157365890997E-01 4.465626159968E+01 2.381627472735E+00 1.502166136858E+00 3.186831147875E+03
 1.067218068208E-02 -1.325649023046E+00 -9.111820625887E-02 9.979233807107E-02 7.626529137785E-01 9.012630960043E-02 2.300814599582E+00 -2.971111474227E-01 -3.048622159150E-02 -7.384028754330E-02 6.495768117586E-02 3.151587798364E-02 -2.988355489628E+00 -2.485888105399E+00 -1.019165140339E-01 4.818027696584E-01 -7.771909866627E-01 -1.802582734395E-02 5.080554756808E-01 2.636692549081E-02 -2.870140854611E-02 2.877388128869E-01 1.245108321389E+00 -7.558766100543E-02 -3.595989334698E+00 3.542073112595E+00 1.018244148768E-01 4.595830047388E-01 2.701414854246E+00 -5.675331866396E-02 -1.452536690043E+00 4.098984458841E-01 -2.130356098002E+00 -5.279058147065E+02 -8.968649417717E+02 -2.521890470333E+01 -1.427634005927E-01 -1.329581735138E+00 1.646213888240E-01 4.553451758002E+02 -8.043722994910E+02 2.485830341505E+01 -8.383497397590E+01 1.047786193213E+00 -3.947429176729E+00 8.080809598541E+01 -2.468922597037E-01 3.838295468740E+00 5.837257501864E+01 2.606572835747E+03
 -8.214666198361E-02 -2.449381302940E-01 -5.168655959195E-02 -3.475165543013E-01 -7.096604497295E-02 5.777141193921E+00 6.859883072252E-02 1.433675494154E-01 3.150279185929E-02 1.308478603071E-01 -4.616466957542E-01 3.663609685064E-02 -6.945081052869E-02 -1.026220943848E-01 1.694187444954E-01 1.150182904057E-01 8.742818333297E-02 -1.896866745687E-01 -1.095102981087E-01 1.241732123658E-01 4.275763290579E-03 3.043616667824E-01 -1.503173006941E-01 3.077728330092E-02 2.594867231985E-01 -3.496767012197E-01 2.273489798737E-02 3.209936600611E-01 -5.967278595805E-02 -1.510278518878E-01 -2.775358383696E-01 4.561696864097E-01 -1.193130897542E+01 -7.723147615709E+01 -2.343244582552E+01 -8.025886973926E+01 -1.686755504130E-02 1.044441763082E-01 5.411770424911E+00 -5.979293343633E+01 2.678779536458E+01 -9.131490712596E+01 1.696347976022E+00 -1.772213005060E+00 1.254623350965E+01 -3.780801410659E-01 4.144696728206E-01 1.168677196043E+01 1.502584459835E+02 -7.682154262143E+00 1.753088775543E+02
 2.899622423223E-02 -9.392717480595E-02 -6.834144591187E-02 -1.325383298683E+03 4.602090205413E+02 -1.949349181481E+01 7.156407934604E-02 6.437682190454E-02 -7.118017705858E-02 4.456724259012E-02 -1.913872524913E-01 -1.379893481253E-01 -3.955722284361E-02 1.332768116302E-01 -1.262902120385E-03 4.321382118258E+01 8.517224630702E-02 6.206168125412E-01 -8.680249304893E-02 1.095034799421E-01 8.887422285936E-02 -2.194891571472E+01 3.840632694961E+01 -3.533073930314E-01 1.063673905171E-01 -2.233721709369E-01 -7.653548837901E-02 2.330489858856E-01 -1.209333408632E-01 -2.543674524429E-02 6.405132372750E-03 -6.800834510590E-01 4.401551503571E-01 5.659584726718E-01 1.454452052835E+00 -3.372439269781E-01 -1.122209248770E-01 -1.374725083781E-01 -1.003842094909E-01 -1.182732572069E+03 -3.935236464185E+02 -2.866320285155E+01 -2.223791170062E+00 -2.309244761411E+00 -7.219228588639E-01 3.937429677997E+01 7.890199639041E-01 1.122822144724E+00 -2.114324988678E+01 -3.643921921535E+01 -7.934730380768E-02 2.915521931303E+03
 2.429274665240E-02 7.547507822582E-01 -5.407629130466E-02 4.746514737621E+02 -7.970120346737E+02 5.004428948897E+00 -1.142245726323E+00 1.089234343919E-01 -7.621278463235E-02 1.979351237896E-01 1.409114979516E-01 -7.623158957303E-04 1.455711525454E+00 1.322426711755E+00 1.025855312042E-01 7.307676173523E+01 -1.823053923732E-01 1.236926181102E+00 -2.012397479643E-01 -2.425457686365E-01 -5.363506234951E-02 -3.774563938180E+01 6.499131055407E+01 -7.495699511234E-01 1.463655042769E+00 -1.472068610159E+00 -6.233140400076E-02 -5.918643405412E-01 -1.429710741028E+00 2.710223661611E-03 1.520043716124E+00 8.349764351917E-01 3.134247108181E-01 -1.851148290745E+00 -1.015750766925E-01 2.176374539254E-01 9.656725356605E-02 8.391719004286E-01 1.564427927832E-01 -3.950501938010E+02 -7.159458318471E+02 -8.791411780125E+00 -1.819594402731E+00 1.622537386112E+00 7.390770272190E-01 -6.919713029762E+01 -4.415130982878E-01 -1.901540083215E+00 3.558340002206E+01 6.717193193729E+01 3.615148480947E-01 -2.813737719859E+01 3.028679388758E+03
 1.663923503170E-01 -2.317991635772E-01 5.300169782828E+00 -1.909854052353E+01 4.609252676825E+00 -9.491947501751E+01 -2.875092306829E-02 -1.434851107614E-01 -7.276376640921E-03 -2.832548911177E-01 -6.550857687890E-02 5.207342748261E+00 -1.660048249347E-02 -5.391509610222E-03 -3.641071258685E-02 -8.640837239613E-02 2.858672899496E-01 9.649525369896E+00 9.089611895750E-02 1.999191982831E-01 2.202186612550E-03 -1.786873554691E-01 5.086380524877E-01 1.114400317541E+01 -6.807790279700E-02 7.544214513847E-02 -5.629643381742E-04 8.016199417729E-04 -1.876615187420E-03 6.122937356744E-03 -4.458122997567E-01 -2.604144731644E-01 4.735923213509E+00 2.649686794783E-01 -5.869403093040E-01 6.119537935492E+00 7.014169571291E-01 3.139206411086E-01 -9.904732990606E+00 -2.948494459383E+01 -7.085134744345E+00 -9.109517110102E+01 2.615571249715E-01 8.436093167358E-01 4.202502214720E-01 2.800116928997E+00 -5.386265672122E-01 8.919070088297E+00 -2.211269716218E+00 -2.610238297377E+00 1.053661019163E+01 5.451689245933E+01 1.761367770732E+01 2.139883616256E+02