#BIOSYM hessian 1
@Type: Hessian Update
@Units
 distance: 	A
 energy: 	Kcal/Mol
#header
@natom 67

#label
C1      C2      C3      C4      C5      C6      C7      C8      C9      C10     C11     C12     C13     C14     C15     C16     C17     C18     C19     C20     C21     C22     C23     H24     C25     C26     C27     C28     C29     C30     C31     C32     C33     C34     C35     C36     C37     C38     C39     C40     C41     C42     C43     C44     C45     C46     C47     C48     C49     H50     H51     H52     H53     H54     H55     H56     H57     H58     H59     H60     H61     H62     H63     H64     H65     H66     H67

#element
C  C  C  C  C  C  C  C  C  C  C  C  C  C  C  C  C  C  C  C  C  C  C  H  C  C  C  C  C  C  C  C  C  C  C  C  C  C  C  C  C  C  C  C  C  C  C  C  C  H  H  H  H  H  H  H  H  H  H  H  H  H  H  H  H  H  H 

#matrix
201
 2.782329181654E+03
 -2.592739304953E+01 2.818020467542E+03
 -1.702113561591E+01 -1.191087230749E+01 1.935839289517E+02
 3.981996589499E+01 6.768684178687E+01 6.627408016419E-01 2.790758245970E+03
 8.262289045869E-01 -1.351064656292E+00 -9.083054803234E-02 -2.310355767049E+01 2.766617239671E+03
 6.169618255090E-02 7.475979672421E-03 8.714475048407E+00 -8.841582395906E-01 1.545483923945E+01 1.915008148590E+02
 -2.044608591528E+01 3.464931924833E+01 6.202927389034E-01 7.217446606183E-02 8.595225837568E-01 -1.523284596705E-01 2.812042395059E+03
 -3.397103764703E+01 5.916794800485E+01 1.405950836399E+00 2.339261202048E-03 1.390392945965E-01 -4.035210223134E-02 -3.123302122050E+01 2.818229983479E+03
 6.401791441092E-01 -1.930364623765E-01 9.372633346208E+00 4.146985782707E-02 -1.049315030518E-01 -1.267689287974E-01 -4.746171460798E+01 1.466191888098E+01 1.966400831946E+02
 3.883457676141E+01 -6.833307060135E+01 -1.144869382131E+00 -1.977444216277E+01 3.538659208287E+01 2.638183417364E-01 4.181493391252E+01 7.211473840993E+01 1.704591352586E-01 2.787460479040E+03
 -7.985277555606E-01 4.141164582946E-01 9.283184714389E-02 -3.282097006100E+01 5.899772576349E+01 8.691147268810E-01 -7.235813233444E-01 -7.663426220922E-01 -1.553755810924E-01 -1.974175966694E+01 2.833383251819E+03
 -5.076238046028E-01 5.949519823481E-01 9.428326187436E+00 4.210393829219E-02 7.192256182055E-01 9.446516423508E+00 -7.301832584836E-01 -1.465963770501E+00 9.007533142590E+00 -2.643147266646E+01 1.782282150977E+01 1.953903311733E+02
 -4.539082411970E-01 1.257709194171E-01 1.206873069337E-01 -7.219190149259E-02 8.265908397049E-01 -1.195634568692E-01 4.178441541864E+01 -7.331150363969E+01 -1.599291986440E+00 -2.162128428220E+01 3.797708534595E+01 8.041796399016E-01 2.636850658844E+03
 -1.442800675022E-01 -9.000558946962E-01 -1.317438224706E-01 2.313358522610E-01 -4.427845275969E-01 1.662912046581E-01 2.225552987668E-01 -8.945415179436E-01 9.950913436547E-02 -3.534608900675E+01 6.253835403047E+01 1.465482357978E+00 -2.219050029211E+02 2.897974566793E+03
 -5.783257854198E-02 7.493130707785E-02 4.215581131952E-01 9.949545788437E-02 1.671937656245E-01 4.873774149204E-01 -8.167124087837E-01 1.234824344918E+00 1.017083213949E+01 2.917399248188E-01 2.520856318126E-01 1.075805163273E+01 -4.137761429609E+01 3.511257509179E+01 1.569581397317E+02
 -1.228760718848E+03 4.489347911933E+02 2.707187701526E+00 -4.674734183919E+02 -8.939918653717E+00 8.582734037158E-02 1.019725164536E-01 9.114561426249E-02 1.132016065550E-02 1.120952015019E-01 -2.222620344580E-03 -4.389258269941E-01 1.064938407962E-01 5.689116059571E-02 -7.680870126538E-02 2.821417134601E+03
 4.427098326564E+02 -7.390375535801E+02 -1.620076703354E+00 -7.952754009923E+00 -1.431451941534E+03 -6.085253936400E+00 -9.829081250873E-01 -6.950158602646E-02 -1.373717975506E-01 7.747153492462E-02 -4.092709721471E-01 3.564194574049E-01 -6.896172332628E-01 2.884068676341E-01 1.799261962412E-02 -1.254613450115E+00 2.778528480520E+03
 3.358110595617E+00 -4.115214671554E-01 -8.306838042483E+01 1.181678579401E-01 -6.171650378655E+00 -8.147128230992E+01 -2.952152351936E-01 6.071341574256E-03 4.584935067023E+00 3.164473839411E-01 -2.890525287696E-01 -9.225496697618E+00 1.549060440855E-01 1.207300014335E-02 1.940933642988E-03 1.180233559455E+00 8.625963607700E+00 1.921084950897E+02
 -1.190080693143E+03 -4.140063268550E+02 1.119126430082E+01 1.297991082634E-01 -1.417704965213E+00 3.777427126126E-01 -1.263837722317E+03 4.468915969758E+02 2.164770218287E+01 -4.853603975508E+02 -1.038002107409E+01 5.345385870303E+00 4.971828793348E-01 7.248080665717E-02 -3.500624523682E-01 -1.986428838306E+01 -3.204068237621E+01 2.755533060496E-01 2.819082948470E+03
 -4.131790981439E+02 -7.026881382428E+02 3.019468321775E+00 -5.381876041716E-02 -8.238766683737E-01 4.102353025682E-01 4.487977845061E+02 -7.456820401135E+02 -1.177099891206E+01 -1.303102777997E+01 -1.513033334935E+03 -8.296577319244E+00 9.479189163357E-02 1.352392714374E-01 4.893129762090E-01 3.429080285405E+01 5.829135786620E+01 -7.730659185770E-01 -2.494807172492E+01 2.843975279419E+03
 1.068462574855E+01 5.116601757935E+00 -8.153517464511E+01 -4.562184553114E-01 4.428580921251E-02 -8.954390999963E+00 2.172924283623E+01 -1.131569343396E+01 -8.606093760778E+01 4.930848458211E+00 -9.321247115422E+00 -8.535963378646E+01 6.021697043140E-02 -9.969855214803E-02 -9.877953800723E+00 8.423963277302E-02 -8.433730573530E-01 8.809116557218E+00 -3.731257055838E+01 1.664420857350E+01 1.968678706047E+02
 -3.998675269511E-02 -1.073003368554E-01 -1.693148737669E-01 -1.219772902921E+03 -4.204004730654E+02 -6.104035179652E-01 -2.911479986026E-01 -1.288872191957E-01 8.580306183253E-02 -1.225477121313E+03 4.404831074648E+02 1.265898491602E+01 -2.205142895394E-01 -2.704076757256E-01 -1.505243569259E-01 3.751288282305E+01 -9.469805229550E-01 -4.102617454282E-02 4.176588154062E+01 -2.149615739725E-01 -3.456307437302E-01 2.807147492955E+03
 -9.144393178761E-02 -2.060732815221E-01 -1.180440022581E-01 -4.232496721520E+02 -7.050820297990E+02 -4.636654707971E+00 -7.360014902329E-02 2.319301131211E-02 -1.335319412324E-01 4.391029491580E+02 -7.357642393573E+02 -9.957223693997E+00 -5.763596684657E-02 8.223407040828E-02 5.940633696272E-02 -6.674303477121E+01 6.754108209191E-01 4.190057444913E-01 7.027814045591E+01 -3.680793290223E-01 -1.723004309805E-01 -3.028445044369E-01 2.807895989834E+03
 1.532516050345E-01 -2.149380101656E-01 -9.071671711272E+00 -1.229756205592E+00 -4.412748172179E+00 -8.265297758234E+01 1.484423501540E-01 -1.890350595580E-01 4.239575568797E+00 1.273164958380E+01 -8.695152421464E+00 -8.367135725381E+01 4.188961156822E-02 -8.859173000472E-03 5.344426408047E+00 -2.391942620159E-01 1.257523906383E+00 9.245192267700E+00 -2.656423230318E-01 3.259115039974E-02 9.284177149920E+00 -1.403899102064E+01 3.013285002918E+01 1.971973968921E+02
 -2.089079379857E-01 5.140819400741E-02 -2.160310265457E-01 1.061878361850E-01 2.556585358411E-01 1.664477933011E-01 -1.194599374792E+03 -4.084370400556E+02 1.791529951727E+01 6.904931539195E-02 -2.415470858627E-01 3.017972397415E-02 -5.227551113351E+02 8.686017466542E+00 8.845927024309E+00 6.137379379808E-03 -4.812798702664E-01 -6.359802996025E-02 -1.951211671016E+01 -3.384850528689E+01 2.518452947145E-01 -1.455710842028E-01 1.640084187720E-02 -1.665143586897E-02 2.773357363744E+03
 1.158887403899E+00 4.909683009952E-01 -2.712252784391E-01 -2.177825328054E-01 -1.440643082010E+00 -3.844459683043E-01 -4.163294529709E+02 -7.047307690281E+02 2.479089714078E+00 -1.075016929591E-01 9.054760924394E-01 1.350878676437E-02 1.124845726326E+01 -1.634954992631E+03 -1.894803104659E+01 -2.960675745454E-01 1.876176813930E+00 -7.034504566578E-02 3.314955737493E+01 5.884998431262E+01 -8.247457998240E-01 6.460475885870E-01 8.000225017060E-02 9.217136539966E-01 -2.928114978282E+01 2.955413245293E+03
 4.965707607912E-01 -4.984142269523E-01 3.884636624199E+00 -6.027278357695E-02 -5.558406998721E-01 -1.050637131577E+00 1.793861758639E+01 3.183628101085E+00 -8.315516623740E+01 -2.919055487698E-01 3.865847940192E-01 -1.034913079073E+01 8.651966815106E+00 -1.963317833610E+01 -7.966696524278E+01 -1.083645955948E-01 9.493739959355E-01 2.727133652375E-01 3.386981681322E-01 3.621740406906E-01 1.018697432326E+01 1.111196365875E-01 -1.687983689153E-02 1.061673378852E+00 -5.479764281708E+01 3.393614112861E+01 1.862341342469E+02
 4.491836852121E-01 -1.078426743381E-01 2.604984570982E-01 7.286066667331E-02 -8.149912673708E-01 3.974956669729E-02 2.861401892964E-01 9.687249795573E-02 -4.185246230834E-01 -1.194412505605E+03 -4.171327493408E+02 9.358029250752E+00 -1.336321211647E+03 4.942782320709E+02 2.382549877048E+01 -8.295438299964E-02 7.647660055870E-01 -2.052197475714E-01 3.837716042358E+01 -5.674461120352E-01 -2.758057699840E-01 -1.924383847715E+01 -3.273632790154E+01 4.132001978752E-02 4.945818025530E+01 -4.649954315720E-01 -8.749390827960E-01 2.881840688662E+03
 -3.578245397689E-01 3.061460328312E-01 3.249459479304E-01 -1.404015384685E-01 9.827733417499E-01 -5.262680058266E-02 -3.201685376160E-01 6.404491994858E-02 -6.738223389698E-02 -4.090459122670E+02 -7.048721287082E+02 -7.951150142149E-01 4.920344894392E+02 -8.198434584477E+02 -1.573111600718E+01 1.056728317963E-01 -8.065851671345E-01 7.270402810687E-02 -6.812454389234E+01 7.763223498828E-01 8.990594579919E-01 3.429379808799E+01 5.795996008662E+01 -4.407837141425E-01 8.136851071575E+01 1.099194450380E+00 -1.114420868349E+00 -9.479141889285E+01 2.844694694315E+03
 -2.588374568901E-01 2.040244837500E-01 5.074033917883E+00 2.427397072519E-01 4.890120810695E-01 5.670654733725E+00 -2.243918915854E-03 1.255241455494E-01 -1.041163749885E+01 9.387570897043E+00 -2.939929227067E-01 -8.278177095346E+01 2.296414241747E+01 -1.557285338509E+01 -7.699413004666E+01 1.040565391925E-02 -9.407708743867E-01 -3.353262677470E-01 -3.744826617011E-01 -1.115291467954E-01 1.067195082196E+01 5.065585532299E-01 3.335929921090E-01 6.930123524017E+00 5.421466915039E-01 -3.360805586584E-01 8.038106720367E+00 -3.718820191418E+01 3.114709951171E+01 1.868606674964E+02
 3.018538903236E-01 3.109207893762E-01 2.972800946155E-02 -9.546333519791E-02 -2.441374240987E-01 1.002266055145E-01 2.888749616140E-01 1.125144297847E-01 -3.600186507203E-02 -6.651781741958E-02 3.460159162208E-01 -9.872105697420E-03 1.736851127816E-01 3.467886210654E-01 4.391157636151E-02 -1.047491389152E-01 4.972364173064E-01 2.747293838939E-01 -4.342833084779E-01 -1.788100179406E-01 5.305401568676E-02 2.131720801164E-01 1.853912684560E-02 2.274801955008E-01 1.267161909835E-01 -6.332528239641E-01 3.786235845848E-02 -1.900310804439E-01 8.125806693228E-02 -2.910983858172E-02 2.809371760418E+03
 -4.143203693646E-01 -2.306719852396E-01 1.886207163057E-01 1.148269027953E-01 4.605424603057E-01 -1.612854258279E-01 -3.516345592161E-01 -8.260651505915E-02 -7.352032906119E-03 3.475407582190E-02 -1.920784964056E-01 -3.382190874181E-02 -2.386837405297E-01 -1.676933071363E-01 -2.900657414569E-02 6.941367162141E-03 -3.064242033955E-01 8.380618306973E-03 4.686591377550E-01 2.300306972253E-01 7.680923109093E-02 -2.829589116755E-01 1.306979189724E-02 2.514580552154E-01 -1.597267149587E-01 8.303383556681E-01 2.956127231948E-01 2.714134065171E-01 -1.982446568224E-01 -3.452478485850E-01 1.466721817729E+00 2.799720815769E+03
 -7.405800841031E-02 1.192727353481E-01 -2.745216888406E-01 -3.815700117164E-02 -7.649259677960E-02 -2.807857548519E-01 4.970030035499E-02 6.308351489133E-02 4.224899666061E-01 8.725783672190E-03 1.003001520651E-02 -2.081168824987E-01 1.032212668244E-01 -2.562728819659E-02 -8.203855982069E-01 -7.115807423318E-02 -9.996783974572E-02 4.521591436476E+00 -4.032020823594E-02 -7.063159770509E-02 4.551880472290E-02 8.092633731901E-02 -7.773196833458E-02 -3.885590616405E-01 6.514868456613E-02 -4.433710421319E-01 8.590911507805E-01 -2.175633155738E-01 3.884890372123E-02 -8.945153545212E-01 5.551974792734E+01 1.004237216728E+01 1.954944650679E+02
 3.813841304651E-02 -2.447252248100E-01 -7.332709188089E-02 3.857846567146E-02 -3.372062682960E-01 1.313870208574E-01 2.411974505342E-02 -3.788204136064E-02 -4.202853872225E-02 7.661676672479E-02 -1.513312448866E-01 4.766796462340E-02 8.036246484270E-02 -2.176259010904E-01 1.092469358546E-01 7.716798891774E-02 2.955105045891E-02 -2.236677066425E-01 -5.394353850759E-02 -5.687840430108E-02 -2.099384391283E-02 -3.972748261849E-02 3.000729852032E-02 -1.499130158538E-01 4.161575789723E-04 -8.259894093655E-03 -2.715958666170E-01 -7.509579605240E-02 1.295218608438E-01 2.528039176130E-01 4.187843960138E+01 7.152149798965E+01 1.452176426544E+00 2.783609830235E+03
 -4.045675322703E-01 -6.635103689201E-01 1.356270888803E-01 1.946179922558E-01 7.334253109260E-02 2.478103755970E-01 -3.695561556760E-01 -1.822383069568E-01 3.630108510406E-02 1.263983282883E-01 -5.059749619905E-01 7.121402483012E-02 -1.810173383234E-01 -5.594778345648E-01 5.583017274392E-02 1.503287212084E-01 -3.612638168356E-01 -8.455709052617E-02 5.150192726302E-01 2.056704790706E-01 3.496060403092E-02 -3.136038903573E-01 3.135311371335E-03 -2.560220183913E-01 -1.705540320355E-01 8.882867877437E-01 -1.933191430126E-01 2.155095410872E-01 -2.489789147953E-02 1.450004597113E-01 -7.366226330731E-01 -2.283127496663E+00 8.605540028615E-02 2.770366775376E+02 2.856590522899E+03
 4.886770314536E-02 8.990562872661E-02 2.933884678464E-01 -4.002875000415E-02 -2.000875871253E-02 1.003561313913E-01 -3.939659888522E-04 4.881678458908E-02 -6.365762739495E-01 1.015682955885E-02 1.809639426461E-01 -8.291003738644E-02 -9.761441037000E-03 1.401380767702E-01 8.867860808260E-01 -8.402758697979E-03 4.135043249999E-01 2.004834017051E-01 -8.618377042141E-02 7.227734852103E-02 2.526506727856E-01 -2.233296185693E-01 2.353280960664E-01 1.287492622784E+00 2.898633644008E-02 1.802339193582E-01 -3.646868706285E-01 1.291096869905E-01 -1.418107437315E-02 2.638242279888E-01 8.743342395929E-01 1.619882313386E+00 1.024394779603E+01 5.701862738166E+01 2.702063638023E+01 1.516085023765E+02
 -2.016754552144E+01 -3.433731096902E+01 2.255971945817E-01 3.853136503708E+01 -1.257060794672E+00 2.086987851045E-02 3.710140122909E-01 1.801489860276E-01 1.524323059416E-01 3.691981379930E-02 2.814930001219E-01 9.875448084414E-02 3.458228964348E-01 1.440672774954E-01 2.633617723540E-02 -1.245534851740E+03 -4.344837211605E+02 -4.448456059275E+00 -5.546404074418E-01 -3.686565527285E-01 4.597695846173E-01 1.529049021504E-01 6.652828142747E-02 -3.590201610654E-01 2.316079720131E-01 -1.042575369988E+00 -2.316770173170E-01 -4.098790168642E-01 2.820091618615E-01 3.435350061952E-01 -1.985774792964E+01 3.439380756076E+01 -6.492498574376E-01 -5.387603433186E-03 3.126902047638E-01 -8.486172409268E-02 2.775617019920E+03
 3.566741125194E+01 5.813496439006E+01 8.594690499836E-01 -6.775727543477E+01 -3.475545300914E-03 -1.332468082157E-01 -1.037504104208E-01 -2.982247980537E-01 1.236173215968E-02 1.291939129268E-01 -5.602326341979E-01 -4.374021459929E-02 2.765232772514E-02 -1.023933334170E+00 1.827455996394E-01 -4.396399435699E+02 -7.218644217851E+02 -5.010165081084E-01 3.276796912688E-01 2.887581308717E-01 2.834117493518E-01 -1.411209309869E-01 2.192713830826E-02 -6.483656614572E-01 -3.924447644375E-02 7.090331166417E-01 -5.349880439436E-01 3.571277952420E-02 3.498193072793E-01 3.492642238533E-01 -3.200305398352E+01 5.662459581628E+01 -9.120039077771E-02 -1.636189872842E-01 -7.772087726242E-01 6.833211412810E-02 1.959360182600E+01 2.804572077895E+03
 -2.358595435352E-01 8.864947266519E-01 9.995808820077E+00 -6.717973051634E-01 -1.054496337101E-01 9.122528985069E+00 -7.481314051062E-02 2.572425532988E-01 -6.823910761177E-02 1.231219071904E-01 -1.965094105463E-01 1.370420531413E-03 1.731005193395E-01 1.832811280610E-01 1.586298431184E-01 -3.995068815841E+00 -1.923733103189E+00 -8.273130535464E+01 -2.468657248486E-01 -1.150735785468E-01 4.574893469846E+00 1.626640507892E-01 2.532799285329E-01 4.496581156970E+00 -3.436225925505E-02 -4.285781761067E-01 -2.385123605745E-01 -2.206118199893E-01 8.271411053583E-02 2.706460667321E-01 -6.039677193784E-01 1.636889831276E+00 8.655302340206E+00 -2.176262237325E-01 -2.428849074819E-02 9.666746755691E-02 2.099411965688E+01 -1.258201548014E+01 1.915786737552E+02
 -4.114005368333E-01 -2.312818633119E-01 4.260257047871E-02 -1.886284668779E+01 -3.094779951688E+01 -2.859116313667E-01 -4.305941398983E-01 -1.904244291649E-01 -6.302165577234E-02 6.927116767891E-02 -4.337713685089E-01 4.804465140092E-02 -2.902597916855E-01 -4.146437383433E-01 1.149730596225E-01 2.205703337936E-01 -7.753781669761E-01 -2.786597466791E-01 6.258905312397E-01 2.644909641589E-01 -7.930573839557E-02 -3.312787749515E-01 7.887177377564E-04 7.481979359783E-02 -1.856267143856E-01 1.010568198036E+00 -7.912582743771E-02 3.508315176733E-01 -1.638325113082E-01 4.369782167482E-02 3.966213208501E+01 -6.976585186369E+01 -1.111405072292E-01 -2.303882355412E+01 3.994926866973E+01 -3.954976264922E-01 4.032984147588E+01 6.649984866762E+01 1.342740312694E+00 2.770132801103E+03
 -4.228773482701E-01 -6.517270741874E-02 -3.664333550106E-01 3.355381505275E+01 5.582745608550E+01 1.014693628886E+00 -3.616331306810E-01 -1.231638105779E-01 1.122897167146E-01 2.478096360619E-02 -2.413863344730E-01 1.621355426859E-01 -2.420234442478E-01 -1.658954348873E-01 -1.696598324887E-01 1.098860080481E-01 -7.605106616435E-01 -4.330332766749E-01 4.665906720727E-01 1.638924887743E-01 -1.132342657589E-01 -1.998217297866E-01 -1.869026432445E-02 -3.889196442269E-02 -2.076346871371E-01 8.898351359225E-01 3.054989042429E-01 2.477683759050E-01 -2.142807295437E-01 -3.094662647716E-01 1.600904296131E-01 1.954926630296E-02 1.457013733901E-01 -4.201319825059E+01 7.374302077381E+01 -4.124906851412E-01 3.461410294342E-01 -2.113170226932E-01 5.176342783426E-02 -3.817482098303E+01 2.757682337064E+03
 -4.215281336722E-01 3.861316275105E-01 3.275252177997E-01 -1.856584369390E-01 1.790024736055E+00 8.881683454144E+00 -1.771774453058E-01 8.408797199790E-02 -1.267957173400E-01 -1.892428877533E-01 1.611075669755E-01 3.482375971068E-01 -1.388857995499E-01 2.778441393099E-01 7.574232102098E-01 7.947018112778E-01 -3.725702906101E-01 -9.153663287889E+00 4.129693423833E-01 -7.258861674892E-02 -2.539066817667E-02 -1.618489156614E-01 -4.113443185524E-01 3.090176628898E+00 8.039484840227E-02 -4.139398493558E-01 -1.812735505674E+00 8.989332573699E-02 -2.404930524055E-01 2.152349789365E+00 8.884871338969E-01 -1.753375280382E+00 8.950783767742E+00 -8.350343221412E-01 2.019044590779E+00 1.241729874711E+01 7.170005685981E-01 9.233934813433E-01 8.963232825261E+00 4.027068107744E+01 1.445414912066E+01 1.869371556071E+02
 2.606017756331E-02 -1.764515995533E-01 1.039887042018E-01 8.352695351473E-02 -1.080733401460E-01 -3.762676439539E-02 2.324004954311E-02 -3.588513991577E-03 3.352331566185E-02 3.527013831002E-02 -5.780758225608E-02 -2.100737371686E-02 4.443934872613E-02 -9.447826890585E-02 -2.033818790405E-02 -2.881442399038E-02 1.306914051783E-01 6.563999187067E-02 -3.991156689109E-02 -7.264752781418E-03 3.720071729232E-02 -6.751623940405E-03 3.796912844905E-03 -9.712174721525E-02 3.876392783731E-03 -3.893466755405E-02 -2.266683184785E-02 -5.520577973223E-02 6.704902805969E-02 -1.877115215948E-02 -1.232263409593E+03 4.351250501562E+02 -2.236366809471E+01 -5.076770681762E+02 -1.872381959643E+01 -9.761461728107E+00 -3.793156857667E-03 -2.193339004503E-01 3.378281633097E-01 1.075676209172E-02 4.786607414749E-02 -7.903825972340E-02 2.842360040570E+03
 8.161868518706E-01 4.540968480611E-01 -2.838748359422E-01 -2.256298982467E-01 -8.664382222876E-01 -2.121860787986E-01 6.766764435478E-01 2.238299344959E-01 -8.137394482511E-02 -6.543357198771E-02 6.289614892705E-01 -1.372701881251E-02 4.864568818045E-01 5.611236569294E-01 -9.909614656265E-03 -1.600319917726E-01 1.043467764770E+00 -8.406471196845E-02 -1.034320021072E+00 -4.715786518136E-01 -1.371119392941E-01 4.669411902832E-01 4.273585923739E-02 2.897140920324E-01 2.469168010165E-01 -1.366649172673E+00 9.374304512090E-02 -5.408344243162E-01 2.799928086306E-01 -8.621569679784E-02 4.367551135209E+02 -7.325943986344E+02 5.806420347741E+00 -2.860002788882E+01 -1.540570728899E+03 -1.230645869159E+01 -5.817440139530E-01 7.255215792795E-01 -3.471502973555E-01 7.727014246589E-01 4.891265268041E-01 -3.277694589262E-01 2.869916486292E+01 2.890819311271E+03
 1.333542790467E-01 -5.789320640169E-01 -4.479324056480E-01 7.383195143688E-02 -5.782858642610E-01 -8.309382965765E-01 1.133806023237E-02 -4.483328393723E-02 3.000724013382E-01 1.257700124522E-01 9.505400460302E-02 -2.017475555019E-01 2.140354802301E-01 -1.587071142410E-01 -9.844487366557E-01 -4.702482633853E-02 8.361021944530E-01 1.915290348845E-01 -2.121002486567E-01 -1.082719066895E-01 -2.369542270895E-01 -8.223825626272E-02 2.481415873672E-02 8.689990280318E-01 -1.548357929683E-01 4.873990975504E-01 1.958704436450E+00 -3.003221306507E-01 2.667744138532E-02 -2.276453933067E+00 -2.221253424995E+01 6.417285772863E+00 -8.490744385317E+01 -1.003454328872E+01 -1.259299426732E+01 -7.751290451935E+01 -3.851619495861E-01 -6.713468233740E-01 4.300200470872E+00 2.325475351455E-01 2.237022511087E-01 -1.189763732249E+01 6.045312323216E+01 2.195261641595E+01 1.871146523999E+02
 -4.568464738353E-01 2.803504503044E-02 1.876438051050E-01 1.581413842593E-01 9.915997243777E-01 -4.048335960625E-01 -4.197735891153E-01 -8.979092607507E-02 6.081662571973E-02 -5.666909505816E-02 -2.038051895080E-01 -7.101636407964E-02 -3.748529313417E-01 -8.272590912139E-02 -8.284475981392E-02 -1.976048272176E+01 3.401061707026E+01 -3.379880674262E-01 6.808839094329E-01 3.267799432354E-01 -4.662746181168E-02 -1.544868619542E-01 -8.024189729389E-02 -2.506038240590E-01 -1.456411609313E-01 7.754596732066E-01 5.249947316100E-02 4.025073304933E-01 -3.113871085399E-01 -1.057458912233E-02 -1.223624020132E+03 -4.239446593777E+02 -2.417585335825E+01 2.937918581814E-02 -9.993936261595E-02 1.761458813618E-01 -1.170020517040E+03 4.257277874769E+02 -1.363631904493E+01 -4.724640919570E+02 -1.105057502846E+01 -7.213944376017E+00 -1.959005505818E+01 -3.330912171215E+01 -7.476773658316E-01 2.750642330368E+03
 7.504274679821E-01 -1.383499272516E-01 -5.635383083423E-02 6.216502887042E-02 -1.435173674873E+00 4.029547021944E-01 5.524537393956E-01 1.204919333117E-01 -1.369669683780E-01 1.333550206203E-01 1.962770113749E-01 -5.561504553147E-02 5.522389162789E-01 -2.942041910165E-03 1.002452423422E-01 -3.289885362260E+01 5.879994102710E+01 -8.766815666232E-01 -9.115016064287E-01 -4.521680604237E-01 -1.584402522580E-01 2.163188511231E-01 1.295417718466E-01 2.227614233669E-01 1.832213670688E-01 -1.052054120988E+00 -1.470506467435E-01 -5.944297055362E-01 4.628361556631E-01 2.658707983659E-02 -4.271184509222E+02 -7.107118209517E+02 -1.236332546140E+01 -2.760283900012E-02 2.706474225698E-01 2.886717926146E-01 4.265173900742E+02 -7.175246514288E+02 4.232960114562E+00 -7.954651514210E-01 -1.496935214817E+03 -7.973974136244E+00 3.451993145999E+01 5.896254707957E+01 6.114199379519E-01 2.025069359219E+00 2.807590531649E+03
 -4.604579951048E-01 3.160184148943E-01 4.950694128913E+00 6.606081139544E-01 -3.434905172024E-02 -8.230145804539E+00 -8.817502294054E-02 1.746169258166E-01 -5.040009564843E-01 1.204991949552E-01 -4.478760052712E-02 -3.025839539437E-02 -6.012738549505E-03 4.558642675099E-02 9.853945931881E-01 -1.936271722435E-01 -1.007676400723E+00 8.901824473974E+00 8.622733916085E-02 -1.067216861557E-01 4.494682406201E-01 -3.532393614584E-01 2.298198414522E-01 7.378871770957E-02 1.287016201346E-01 -4.392075091837E-01 -1.313913529836E+00 8.536620782431E-02 5.420044514544E-02 1.483479421185E+00 -2.441030367509E+01 -1.180286699838E+01 -8.327326763434E+01 -7.047393481893E-02 3.172991250812E-02 -9.718761247449E+00 -1.315027935619E+01 6.754213198353E+00 -8.016097192261E+01 -6.650906135634E+00 -1.010469037953E+01 -8.188011686412E+01 -2.867130489355E-01 -9.066397206860E-01 8.692590520144E+00 4.391203343579E+01 1.584887963417E+01 1.923795157602E+02
 3.369387531834E-01 4.353508272587E-01 8.824858916871E-03 -1.244749873595E-01 -1.043399976381E-01 -2.580135631903E-02 3.261542290388E-01 1.384341397600E-01 1.049261840353E-01 -1.217220673017E-01 3.848936509699E-01 -5.500828189921E-03 1.574339328735E-01 4.324847512202E-01 -1.225725414126E-01 -1.242471910823E-01 3.497006457203E-01 1.606655975565E-01 -4.255689870242E-01 -1.761267941385E-01 -1.239821173817E-02 3.492956470889E-01 -4.924323693528E-02 -1.681143645546E-01 1.591548080081E-01 -8.458882131129E-01 4.207216449285E-03 -2.072607817883E-01 6.375052326564E-02 5.441768026263E-02 -4.369392456605E-01 2.446969251554E-01 1.937961632280E-01 -1.507568175230E+03 -5.261939067677E+02 -3.408871244174E+01 -2.866791556128E-01 5.148862575443E-01 -1.284660139053E-01 -1.275557953549E+03 4.363682682870E+02 -1.780630371506E+01 4.871567376240E+01 -1.841443280062E+00 8.532772453558E-01 3.972287175403E+01 -3.908314802056E-01 5.989367029173E-01 3.073238605875E+03
 -2.931758305608E-01 4.468617205658E-01 1.335074821416E-01 -2.450250111075E-02 7.970932580350E-01 2.618032451514E-02 -1.856031752913E-01 1.201690680602E-02 6.198628569878E-02 -1.087888908766E-01 -1.019458846103E-02 -4.392799275897E-02 -2.609038155103E-01 1.490232239343E-01 -2.034867484794E-02 -1.703678491894E-02 -7.092952953512E-01 1.175080789940E-01 3.820654788052E-01 1.976606735101E-01 1.033347040821E-01 -2.368490868187E-02 -7.139412039734E-02 -2.281133031222E-01 1.352844057803E-03 9.882184779750E-02 -9.110988117944E-02 2.682138817432E-01 -2.242669767269E-01 1.934591667871E-01 -3.179159015447E-02 -5.470105725587E-02 -5.501840060377E-02 -5.362608538970E+02 -8.630921211489E+02 -1.739918923987E+01 2.221883169279E-01 3.559330963201E-01 2.314178622105E-01 4.209893801700E+02 -7.273025114574E+02 3.258861846707E+00 -8.581288787451E+01 2.318932797771E+00 -1.753110862299E+00 7.170548183190E+01 5.641682826413E-02 1.623395887600E+00 8.924490412169E+01 2.537770250979E+03
 3.067968070591E-02 -1.491259171585E-01 -2.956780989055E-01 -1.430500747080E-01 -1.880948886202E-01 4.141476191152E+00 4.594813346383E-02 -3.764245042131E-02 3.614682427823E-01 -2.902514534525E-02 -5.517656865520E-03 -2.440268470590E-01 4.850791501560E-02 -1.072957867312E-01 -8.352764977896E-01 1.342955118286E-02 2.037375620663E-01 1.168253378717E-01 -8.672907470211E-03 5.654460602408E-02 2.498451862765E-02 1.086533002136E-01 -5.248563923982E-02 1.355601980539E-02 3.557895568297E-02 -1.074604168546E-01 1.154053167924E+00 -1.210384703246E-01 3.593811253905E-02 -1.270059578288E+00 -3.372672228441E-02 -8.315251508355E-03 -9.637611929525E+00 -3.343977345062E+01 -1.687361844139E+01 -7.131971898230E+01 1.946356740778E-02 -1.514985856126E-01 4.477567233022E+00 -1.884153922278E+01 4.496654715003E+00 -7.736429458761E+01 -3.507477649645E-03 1.811352878744E-01 1.176390825745E+01 1.091581909018E+00 -1.537975457686E-01 9.201898620677E+00 5.756787167205E+01 1.769828381702E+01 1.526954234548E+02
 -2.076777317963E-02 -8.385286381697E-02 -3.053231002741E-01 -1.224887841325E+03 4.475750445439E+02 1.163859836549E+00 1.512641429776E-01 6.751086748201E-02 3.079407786188E-01 -6.876365957778E-03 7.676612658467E-02 2.214944535045E-01 9.733753141436E-02 7.963119827956E-02 -3.382045152333E-01 4.059658032573E+01 -2.272930037762E-01 -2.568249405974E-01 -1.618222405251E-01 -1.311013554139E-01 9.178253199103E-02 -1.989339305074E+01 3.573101159763E+01 -4.270617105164E-02 5.434163081549E-02 -4.067725099894E-01 7.638585350228E-02 -1.707264317064E-01 8.655264276828E-02 5.521832534607E-02 -1.682287125507E-01 5.393059820821E-02 2.253233904207E-01 3.019116820897E-02 1.881066261809E-01 -5.305422752481E-01 2.016700075724E-01 2.822195472188E-02 8.615516755876E-02 -1.139076079383E+03 -3.889824397214E+02 -1.518791767172E+01 2.278830377768E-02 -2.509218986699E-01 2.275820538180E-02 3.668948209172E+01 -2.754760192944E-01 1.063429355448E-01 -1.782363653826E+01 -3.235596025852E+01 -3.570075462298E-01 2.730410788423E+03
 2.283417843031E-01 3.022404212440E-01 2.910047618868E-01 4.572284097741E+02 -7.429363979541E+02 -6.547977202393E+00 1.826982912644E-01 1.111114663170E-01 -9.914552219786E-02 -1.079369367843E-01 3.712272710484E-01 -1.655874038099E-01 1.074576617039E-01 3.776049397655E-01 4.243242575581E-02 6.692642211484E+01 -1.100907484063E-01 4.496280826902E-01 -2.597941640576E-01 -5.218409610418E-02 -1.218802829548E-02 -3.304128454853E+01 5.900168311743E+01 2.656397078497E-01 1.057962775991E-01 -5.269675471595E-01 3.898294809527E-02 -1.415253280772E-01 -4.944684692270E-02 -1.237030561595E-01 -2.062886560977E-01 2.070689263014E-01 -1.556777445373E-01 9.997944449695E-02 3.432667396870E-01 7.978438366408E-02 -2.378188321387E-01 1.665031428739E-01 -2.216765027507E-01 -3.873566072723E+02 -6.673797353438E+02 -1.173453127705E+01 1.123524430986E-02 -3.949414543649E-01 1.680412893226E-01 -6.497230350201E+01 2.670369953917E-01 -3.519596788880E-01 3.118714386897E+01 5.744913928534E+01 5.381052724526E-01 -9.907584928340E+00 2.819787521097E+03
 3.623584218710E-01 -1.010939431302E+00 4.492977415865E+00 1.792407704630E+00 -6.329219482895E+00 -8.297870902310E+01 -4.067641988212E-02 -1.989584408237E-01 -2.501792548545E-01 -2.295676628202E-01 1.655870622417E-01 4.311301085122E+00 9.580302216171E-02 -1.146165828532E-01 -2.307872962654E-01 -1.628469322755E-01 1.367336595676E+00 9.267573201341E+00 -2.597147575625E-02 3.658921151435E-01 6.345833455148E-02 -2.431562511000E-01 3.360538515971E-03 1.149819768446E+01 -2.575545960212E-02 7.156047902207E-01 1.644697384236E+00 -7.751646020380E-02 -1.029688157993E-01 -2.064293648029E+00 -2.907733106297E-01 -1.223141240575E-02 4.450741383569E+00 7.180334198435E-02 -6.418794424829E-01 6.166932112547E+00 4.837124625727E-03 -3.795371370585E-01 -8.945581153532E+00 -1.567838596183E+01 -9.867845254799E+00 -8.213257776957E+01 -1.709340643836E-01 7.938463721724E-01 1.278390705572E+00 1.474177673513E-01 -2.519767917016E-01 7.678327817359E+00 -8.952070693992E-01 -7.266732232833E-01 1.015205202035E+01 1.598428625973E+01 4.222383986725E+01 1.888475461066E+02