#BIOSYM hessian 1
@Type: Hessian Update
@Units
 distance: 	A
 energy: 	Kcal/Mol
#header
@natom 67

#label
C1      C2      C3      C4      C5      C6      C7      C8      C9      C10     C11     C12     C13     C14     C15     C16     C17     C18     C19     C20     C21     C22     C23     H24     C25     C26     C27     C28     C29     C30     C31     C32     C33     C34     C35     C36     C37     C38     C39     C40     C41     C42     C43     C44     C45     C46     C47     C48     C49     H50     H51     H52     H53     H54     H55     H56     H57     H58     H59     H60     H61     H62     H63     H64     H65     H66     O67

#element
C  C  C  C  C  C  C  C  C  C  C  C  C  C  C  C  C  C  C  C  C  C  C  H  C  C  C  C  C  C  C  C  C  C  C  C  C  C  C  C  C  C  C  C  C  C  C  C  C  H  H  H  H  H  H  H  H  H  H  H  H  H  H  H  H  H  O 

#matrix
201
 2.782261451259E+03
 -1.628043846960E+01 2.805209325301E+03
 -3.232919193126E+01 -4.729984162447E+00 1.922597735698E+02
 3.863460684320E+01 6.639855203566E+01 -6.984037340664E-01 2.796109356568E+03
 -3.381017212363E-01 -5.954669227117E-01 -1.626471777637E-01 -2.142341276932E+01 2.766824070951E+03
 -5.851373332061E-01 -1.127199102888E+00 8.678610099530E+00 -7.886930734778E+00 -8.648903467628E+00 1.909014958489E+02
 -1.924048611711E+01 3.389629573223E+01 6.512689431613E-01 4.848245990782E-02 3.300684076631E-02 -1.427620542048E-01 2.793558072022E+03
 -3.299910229137E+01 5.907854013246E+01 9.180755578347E-01 1.543510623701E-02 5.129209084631E-02 8.018557746591E-02 2.584396193211E+01 2.750080061943E+03
 6.610326724359E-01 -5.641643362094E-01 9.462621724454E+00 4.061097991913E-02 -1.630537862243E-02 3.190436948398E-01 -3.652867376507E+01 7.022022702134E+00 1.875221222176E+02
 3.764399206098E+01 -6.665639837360E+01 -3.678306624292E-01 -1.936953987102E+01 3.489225231074E+01 4.193542167745E-01 3.959825270089E+01 6.891536690512E+01 -2.541326779976E-01 2.797078657920E+03
 -4.767250773616E-02 1.572209351504E-01 6.913132484229E-02 -3.275009476546E+01 5.900434974901E+01 8.112162505652E-01 -7.841586661143E-02 -1.104919003102E-01 6.652529949822E-02 9.747062089886E-01 2.804802180845E+03
 -4.770101170125E-01 8.396186546157E-01 8.744297245512E+00 2.958548203577E-01 1.125042712455E-01 9.075129836833E+00 -6.552315331500E-01 -1.117042250931E+00 9.444453116483E+00 -2.942423747266E+01 3.825470491271E+00 1.936452037927E+02
 2.285860602741E-03 3.692201516092E-02 5.139427938380E-02 -1.015776255708E-02 1.502096686149E-02 4.822879091602E-02 5.103750700334E+01 -8.281873404873E+01 -8.727048603141E-01 -2.140030974562E+01 3.698686746664E+01 5.641269644844E-01 2.601117898607E+03
 1.576623464134E-02 -1.930306533853E-02 3.469659582001E-02 7.344506431358E-03 -3.030527501169E-02 2.194445454768E-01 -1.236040109636E-01 2.551700584963E-01 1.110986629449E-01 -3.528475420016E+01 6.100195903654E+01 8.520325167102E-01 -1.732926539394E+02 3.049637788139E+03
 7.520377696460E-02 -3.963752214200E-02 4.196793483304E-01 -3.270696821697E-02 4.402895699383E-02 3.216090923534E-01 -3.281395703886E-01 1.141267863475E+00 1.308599927157E+01 3.715714856323E-01 -3.068938745083E-01 1.088260112042E+01 -3.224032639467E+01 1.210597905381E+01 1.505791124887E+02
 -1.219186903097E+03 4.401197854502E+02 1.196983862154E+01 -4.640972351399E+02 -6.466072572712E+00 3.917647585258E+00 -1.201365279923E-01 -2.295121220630E-01 -2.275890128887E-01 -1.739819632878E-01 -3.697233641120E-01 -2.757642221013E-01 1.700276894457E-02 -6.572398195428E-03 -4.382189548278E-02 2.817566037524E+03
 4.343537165614E+02 -7.272540854998E+02 -3.007894078989E+00 -4.522210687244E+00 -1.431498645014E+03 6.405161579873E+00 6.882227727109E-02 -1.454641056781E-01 -1.165618799678E-01 -3.569933248269E-01 1.977326538801E-01 1.992753898114E-01 -6.472736412778E-02 -2.824558849937E-03 -4.257833826469E-02 5.489780813654E+00 2.768535425194E+03
 1.136516871340E+01 -3.296525216205E+00 -8.229062257524E+01 2.716570328483E+00 5.466853230211E+00 -8.061181825526E+01 1.449448338435E-01 -4.836294055805E-03 4.431299800322E+00 2.684454157288E-02 -2.931718866998E-01 -8.857169432528E+00 1.559889091812E-02 -6.328410442308E-02 5.559750586750E-02 -2.833343643808E+01 -1.268390944266E+01 1.918943205230E+02
 -1.199854544811E+03 -4.139405741232E+02 1.555823718392E+01 6.207292246461E-02 -2.538980855258E-01 2.088348368003E-01 -1.239022092465E+03 4.400689195058E+02 1.745458242449E+01 -4.691930598124E+02 -1.737993738179E+00 5.432362988661E+00 -1.814057390103E-02 -9.189384698532E-02 -1.907001969981E-01 -1.913249815372E+01 -3.233682390575E+01 2.304288963471E-01 2.793170824021E+03
 -4.117214660571E+02 -6.967666075409E+02 5.657221997019E+00 -1.886826140042E-01 -8.390743568461E-02 -5.445937898528E-02 4.482890906307E+02 -7.289093148509E+02 -7.935926152666E+00 -4.507715925228E+00 -1.461266346196E+03 -2.125686828408E+00 -5.117612815004E-02 -4.429502307908E-02 3.394478494958E-02 3.417876877494E+01 5.835187263017E+01 -5.556045265848E-01 -2.550131231508E+01 2.768405871346E+03
 1.592463625177E+01 6.476716995348E+00 -8.088011410216E+01 -2.036275366103E-01 4.415734919930E-02 -8.785055715248E+00 1.780860270440E+01 -7.955397128571E+00 -8.197635950443E+01 4.941144864938E+00 -2.489543665402E+00 -8.199885139502E+01 -1.897373095745E-01 -5.845200795693E-02 -1.007986442459E+01 4.157895916600E-02 1.016276269304E-02 8.451551852742E+00 -3.790760341975E+01 4.141528718997E+00 1.914588273452E+02
 -2.406001146831E-01 -1.049881061904E-01 -3.651882480350E-01 -1.223882810867E+03 -4.218563713775E+02 6.361722265899E+00 -2.534069854720E-02 6.617645098414E-02 5.550665322169E-02 -1.216511083841E+03 4.341848231790E+02 1.214983421729E+01 -1.323677083642E-03 -1.949891181146E-02 7.340524714859E-03 3.795266537957E+01 -9.064656109570E-02 4.327220753177E-02 3.961727069549E+01 -9.699161529355E-02 -2.578036868573E-01 2.802986916417E+03
 5.424738321071E-02 1.473111633909E-01 7.665154678263E-02 -4.248619379345E+02 -7.071614846873E+02 2.649239468528E+00 -2.697132552016E-03 -1.619197823821E-02 -9.178491930665E-02 4.370049108929E+02 -7.293451481702E+02 -6.205373489467E+00 1.769482628766E-02 -3.119439863116E-03 -1.050998921392E-04 -6.679535696646E+01 1.150558966673E-01 3.721092798048E-01 6.768301443734E+01 -1.537692006047E-01 -6.268212165334E-01 3.976704159237E+00 2.798507072087E+03
 9.892249391007E-02 6.426301827355E-02 -9.131571113696E+00 6.330671107492E+00 3.468662766036E+00 -8.228958162567E+01 -1.078029732094E-02 -1.835081185011E-01 4.297443578635E+00 1.174176254987E+01 -5.752154315654E+00 -8.292121109981E+01 7.635696146109E-03 -1.262538751036E-01 4.346696275393E+00 2.681890359652E-01 -5.224028793927E-02 8.622040964260E+00 -2.335869659523E-01 2.219265507599E-01 8.793213486787E+00 -2.166122285896E+01 7.209986224573E+00 1.941610127954E+02
 -8.288833551633E-03 -4.101976646918E-02 -6.199028052318E-02 -7.055169253949E-04 -2.958671835702E-02 3.228684712591E-02 -1.227354369553E+03 -4.455224782752E+02 1.452585892265E+01 1.776192716222E-02 2.788715808671E-02 -3.684704484371E-02 -5.670599640811E+02 -4.495490983511E-01 6.425900647514E+00 8.671523116413E-03 2.769680123341E-02 -6.878801926879E-02 -2.143695155429E+01 -3.712444908244E+01 2.079552294007E-01 2.048407549001E-02 -2.785749731139E-02 6.713384030941E-02 2.593685384978E+03
 -3.576335286913E-02 -8.704252568492E-03 -1.810329325455E-01 -5.665049726227E-03 -1.711843799943E-02 -2.421747003563E-01 -4.603317229649E+02 -7.723766750727E+02 4.154552442660E+00 -1.093029393805E-01 -3.192343567289E-03 -1.916625115674E-01 -1.126009369987E+01 -1.818908797053E+03 -6.415493651326E+00 1.831447720682E-02 6.486494138848E-02 -2.946509231694E-03 3.483104581437E+01 6.031032002793E+01 -2.766408837970E-01 2.433796448255E-02 -3.044589015364E-03 2.013947904631E-01 1.844276179807E+02 3.030146216876E+03
 -1.484407495443E-03 2.723485799098E-02 4.236951301948E+00 2.535165098025E-02 -5.397761167833E-03 -2.703483180964E-01 1.420383451793E+01 3.957579580381E+00 -7.731457870301E+01 -1.326872623505E-01 1.558239831828E-02 -1.042797960147E+01 6.464759066807E+00 -6.387893630539E+00 -7.102688474788E+01 6.236037778033E-02 5.525564475113E-02 1.653738164466E-02 5.669243628511E-01 7.236418724993E-01 9.389728964687E+00 2.466493474323E-02 -5.720766865717E-03 3.014701935727E-01 -3.204000110617E+01 7.091650295907E+00 1.521907546869E+02
 4.579228804883E-02 -1.703853572076E-02 8.897396376635E-02 2.482708069499E-02 1.671468063190E-02 -1.805632758398E-01 5.627094964378E-02 -5.049810674899E-02 -1.761879802982E-01 -1.228304385790E+03 -4.359875178952E+02 1.287410016154E+01 -1.261934701228E+03 4.603469043725E+02 1.658335321467E+01 -9.236405632766E-02 5.048573820109E-02 6.240098168746E-02 3.959963124855E+01 -7.525740375787E-02 -2.186574143803E-01 -2.013747393099E+01 -3.429495013815E+01 3.134857402887E-01 5.133331721629E+01 -1.437790792222E-01 -5.626898764490E-01 2.848543706016E+03
 2.906611948117E-03 4.450489180766E-02 7.314397364589E-02 -6.810693477837E-02 8.835447547936E-02 -6.604269542195E-02 -3.979181583878E-02 -9.349370035751E-03 -1.056364011949E-01 -4.345780161861E+02 -7.326512923914E+02 3.998655123567E+00 4.503715949537E+02 -7.799526962587E+02 -7.913181690505E+00 6.621223378849E-02 -8.653599604789E-02 1.672674229970E-01 -6.825022098343E+01 1.730010620442E-01 7.541430374375E-01 3.482134631283E+01 5.936756441037E+01 -5.568390893926E-01 8.460740500507E+01 -2.907881267691E-01 -1.131997890724E+00 -3.708139380892E+01 2.883932896056E+03
 -7.579387821769E-02 1.986601897488E-02 4.020953806129E+00 1.372741787767E-01 -8.794714484470E-02 4.240707178315E+00 -2.442650546100E-01 -5.221331071793E-02 -1.111965889273E+01 1.308328965522E+01 4.303966032780E+00 -8.521626355396E+01 1.637977851307E+01 -8.204446997682E+00 -7.784113600483E+01 2.042067090854E-02 1.022429957690E-01 -7.749739005129E-02 -4.331384899826E-01 -8.603677270770E-02 9.300646604667E+00 3.860775527295E-01 3.228292411053E-01 9.438738462773E+00 -9.852779703546E-02 2.788903027650E-01 1.143961812647E+01 -3.391550478521E+01 8.084750374590E+00 1.861672774997E+02
 -1.206876523617E-01 1.683888297831E-01 6.874152101863E-02 4.630248678102E-02 1.678186380545E-01 1.852261150621E-01 -3.439566413302E-02 7.443202739626E-02 -4.275465383332E-04 5.233479456731E-02 -6.693472160361E-02 2.305975829710E-02 -1.485040547057E-02 -9.747881938172E-03 6.149332748925E-02 2.141595468454E-01 -1.583948063176E-01 3.742451117480E-01 9.277794712917E-02 5.201639852706E-02 7.389781103476E-02 -7.144544402100E-02 -2.129774379549E-02 -4.327992227868E-03 2.270763092449E-02 2.785932242829E-02 -6.911930399397E-02 4.413080799348E-02 2.757213438615E-03 -7.564022585813E-02 2.793396348604E+03
 2.177962970319E-01 -2.749882103166E-01 1.569129442450E-01 -1.591985015274E-01 7.741307009046E-02 -7.910901712750E-02 6.869572531111E-02 -2.770522633279E-01 -4.066749641020E-01 -1.498844049089E-01 -3.771996410136E-02 1.467810235413E-01 7.802248659207E-03 -1.718064444807E-01 1.652358421102E-01 -2.842675457736E-02 3.613026172446E-01 4.059700715465E-02 -1.925861149549E-02 1.153097096084E-01 -1.856248559791E-01 1.364922496537E-01 -4.817712440159E-03 -2.515866458124E-01 -2.464444741886E-03 1.276108357882E-01 4.861030623543E-02 2.223051544714E-02 2.196190734076E-01 -2.387644772686E-01 9.577234877045E+00 2.796229400538E+03
 -4.157745726816E-01 6.918244578658E-01 -1.478944214813E+00 5.784915060783E-01 -8.347284117070E-01 -1.104381555793E+00 -7.608127072886E-01 1.031576344366E-01 -1.879428955958E+00 1.400758032651E-01 -5.402491505882E-03 -4.893741786761E-01 1.293029274463E-01 -1.201959938355E-01 -2.199563306620E+00 -6.462635972823E-01 -3.893204994462E-02 4.242074596794E+00 -2.068214702918E-02 -2.853037483491E-01 -1.037762487355E+00 -2.544926971833E-01 1.701571444904E-01 1.268128637083E+00 5.028522953100E-01 4.019360079841E-01 1.763156515716E+00 -3.134663605346E-01 -1.102690027513E-01 2.367992361894E+00 9.259285346992E+01 -9.008147205201E+01 2.067397840216E+02
 -1.727689715826E-01 4.063384502800E-01 -1.443754447363E-01 2.144062918580E-01 -5.393484102029E-02 -6.007366419403E-03 -1.246504413813E-01 3.597589002542E-01 4.903507561516E-02 2.685490519237E-01 -1.910895097924E-01 -8.165112022136E-02 1.772700879399E-02 5.868268652680E-02 -1.231261839427E-01 1.172293893356E-01 -1.057533517062E-01 -7.603873538398E-02 3.902806678630E-02 3.003041099897E-02 1.094593166481E-01 -2.763779146405E-01 8.373133329201E-02 1.845240392169E-01 1.300646431329E-01 -5.148082856525E-03 -1.003553546841E-02 -3.216920195114E-02 -8.695632893211E-02 1.257802936611E-01 4.051249750929E+01 7.189932617074E+01 5.047508236602E-01 2.786199093430E+03
 -3.774274757869E-01 4.265445548973E-01 1.183662091592E-01 1.162946722942E-01 6.674779630429E-02 1.876222190638E-01 -5.930351008883E-02 4.836652930358E-01 2.777005935311E-01 2.019819668596E-01 -2.524355843681E-01 8.871941695526E-03 2.168836671729E-03 9.538152786680E-02 2.271051367831E-01 4.484977814487E-01 -9.893512507855E-02 1.110050703503E-01 1.554557646183E-01 9.430011856589E-02 2.154631387347E-01 -2.931220945099E-01 7.588291040504E-02 -1.087765232061E-01 7.080328554671E-02 -9.648582687355E-02 -2.449094390054E-01 4.195905776474E-02 -5.611782930778E-02 -2.667675089357E-01 -1.472277364521E+00 -1.201834295927E+00 -9.184061455572E-01 2.805507170403E+02 2.855627537262E+03
 -9.006893822800E-02 -6.761456277161E-02 -1.368262037994E-03 -1.331501028346E-01 1.856970501982E-01 -1.151413342797E-02 -3.727379193608E-03 -1.687337143087E-02 -5.608602392024E-01 -2.161757084869E-02 -3.527410581753E-02 1.013231161865E-01 -8.134895907336E-03 -7.661747323634E-03 -3.333091714312E-02 2.918322498895E-01 1.465767274805E-01 1.655121722010E-01 7.491957610035E-02 7.812530414359E-02 -2.113522489220E-01 -1.837253887659E-02 -1.737798604486E-02 2.718061719104E-03 -6.855303034426E-03 -1.207502795742E-02 1.459984964234E-01 3.073380093287E-02 4.956668087424E-02 -5.456672523694E-03 2.204210506244E+00 3.735138587582E+00 1.069324123039E+01 1.176891677143E+02 -3.272159181901E+01 1.556964930719E+02
 -2.006361061656E+01 -3.399140021260E+01 5.583240897704E-01 3.886998346154E+01 -3.110565070341E-01 -8.234537425339E-01 -6.577063718425E-02 1.719499234198E-02 -1.369951817391E-01 -5.753863704624E-02 4.207899742792E-02 -1.059686526331E-02 -2.168855683245E-02 -8.625730262502E-03 -2.501096965428E-01 -1.253480428910E+03 -4.363603466451E+02 1.438414273562E+01 7.946656425000E-02 -9.221453011593E-03 6.875085911269E-02 1.309673879867E-02 -4.325972877760E-02 6.023903169605E-02 1.455061049996E-02 4.373616710103E-02 1.974373775894E-01 4.286056323547E-02 -2.577739233243E-02 2.785906558531E-01 -1.930188446301E+01 3.460456706960E+01 2.613999222731E-01 8.463617298731E-02 -1.541094205974E-01 -1.239888344995E-01 2.785345364720E+03
 3.530600446775E+01 6.065497271922E+01 -2.330286243768E-01 -6.826638459137E+01 4.684363173939E-01 5.547290995556E-01 6.100747139581E-02 1.610094173493E-01 8.093929369131E-01 1.020304262788E-02 -1.432355159616E-01 -3.924488450603E-03 1.621576942008E-02 -1.573046110539E-02 5.385159606826E-01 -4.392786769438E+02 -7.264236415008E+02 1.234980600627E+01 7.940062636151E-03 5.184661565766E-02 3.594750595081E-01 -4.627503614258E-02 5.096204408092E-02 -4.652428352436E-01 -8.105110580336E-03 -2.974104924930E-02 -4.844404585660E-01 3.101789989989E-02 6.677099482168E-02 -5.966272166714E-01 -3.211317004846E+01 5.621993976547E+01 -8.068694635213E-01 -2.091121406890E-01 -4.385917578610E-01 -5.156773054742E-01 2.049535917287E+01 2.799761459862E+03
 4.925558280735E-01 1.509704156604E+00 1.009788093162E+01 3.006012343673E-01 -4.786131568735E-01 9.340751529587E+00 1.344964691910E-01 4.624586268563E-01 6.791866362640E-01 5.346446770724E-01 -1.767937390663E-01 4.003632199774E-02 1.400681872278E-01 2.026948943772E-01 4.635489442125E-01 1.245966674903E+01 9.362010409197E+00 -8.364688532183E+01 -5.816551539873E-01 -3.399211883887E-01 4.934740550081E+00 -1.583304997915E-01 4.974729820707E-01 4.282938118642E+00 -6.081587848979E-02 -3.460040820180E-01 -4.390682582303E-01 -1.967004023677E-01 2.996618873905E-02 -4.749101385219E-01 6.623062818754E-01 1.322769379095E+00 7.244653664493E+00 -3.445659380871E-01 1.125691040508E-01 -1.791112233606E-01 -3.101748114636E+00 -3.903217067442E+01 1.924502247077E+02
 -1.709392474771E-01 2.722788713661E-01 -1.274648772015E-01 -1.907050359296E+01 -3.165423876631E+01 1.358187189514E-01 -3.245805025107E-02 2.472187817885E-01 1.229921643108E-01 9.442221696787E-02 -1.942133966179E-01 -6.271999586156E-02 -4.524209816897E-02 -1.453006282807E-02 -1.172672847218E-01 4.459274236366E-01 -2.185049198427E-01 -4.781961804423E-01 1.195390462029E-01 1.033634596592E-01 7.094760378070E-02 -6.507636309892E-02 3.216649740159E-02 2.195834146510E-01 5.220689266940E-02 6.889076233945E-02 2.250196513151E-03 1.097790384744E-01 -3.478629679620E-02 1.396199873091E-01 3.880830169653E+01 -6.895962377712E+01 1.290848400707E+00 -2.398715446065E+01 3.905063773934E+01 -2.706759630751E+00 3.971290356152E+01 6.700134315211E+01 -9.736497540977E-01 2.774701946017E+03
 1.871293156609E-01 6.578829797436E-02 -3.591328570286E-02 3.417043876625E+01 5.623146552594E+01 8.406193422042E-01 -3.726187408678E-02 -2.110746947834E-02 -3.506681862071E-01 1.472544256913E-01 8.253649679128E-02 7.098235688377E-02 5.377279778337E-02 3.800751593019E-02 -1.127179623564E-01 -6.237652172875E-01 -9.812384566995E-02 -4.397005070993E-02 -1.694708959480E-01 -1.217679972021E-01 -9.270977279551E-02 -1.130734135534E-01 5.764791562582E-02 4.471397192852E-02 2.707309625622E-02 -5.793347532241E-02 1.409855736538E-01 -1.210277340336E-01 1.277723863759E-03 1.070883523057E-01 -2.539654494603E-01 1.275970463056E+00 2.966154405153E-01 -4.257138180984E+01 7.438454272031E+01 -1.697510066916E+00 3.218815049840E-02 -8.315971387912E-02 -6.697804115968E-01 -3.346884016419E+01 2.764025514708E+03
 -5.079932396643E-01 -5.044244191488E-02 4.733747548239E-01 -4.797748680237E-01 1.786678579798E+00 8.673655385381E+00 -1.043310921363E-01 3.170287458920E-01 1.218285134794E+00 4.949366845338E-02 6.475923845332E-01 4.626169038428E-02 1.163961207445E-01 4.170673567721E-01 7.555704147590E-01 1.332847439199E+00 1.795053334994E-01 -9.064073613797E+00 2.056120800364E-01 -3.506202502512E-01 5.742391094333E-01 -7.978335290636E-01 -5.396413375757E-01 3.926855249974E+00 5.228671674834E-02 -4.736491057184E-01 -7.450009844344E-01 -3.479819273317E-01 -4.516993060147E-01 -7.697912231385E-01 1.047052205968E+00 -2.002170887267E+00 7.045554415075E+00 -2.950946602639E-01 2.394074405304E+00 1.194798022070E+01 -4.413276927721E-01 -1.248631266663E-03 9.718273494153E+00 6.691591035173E+01 -4.281701849245E+01 1.887931168747E+02
 4.082743011760E-01 -6.952311578010E-01 1.786455791060E-01 -3.270363902027E-01 5.091237524192E-02 -2.844151388877E-02 2.069608279425E-01 -6.277218670958E-01 5.560368787699E-03 -3.901130807175E-01 3.320167899730E-01 1.072232523313E-01 -2.025652562450E-02 -1.025181577502E-01 1.723779436120E-01 -3.452535249326E-01 2.023364084682E-01 -8.015706703290E-02 -1.294752886171E-01 -5.716332006181E-02 -1.297268376407E-01 4.577956183090E-01 -1.297633224675E-01 -2.014996352121E-01 -1.976805609870E-01 3.579844493210E-02 -8.174680576873E-03 2.615462296031E-02 1.262419783411E-01 -1.573396649566E-01 -1.218660624952E+03 4.361963730854E+02 -6.390701848533E+01 -4.978701448826E+02 -1.853383121284E+01 -2.205896495891E+01 -9.135238899270E-02 6.231989953991E-01 1.915235937067E-01 2.048375483306E+00 4.844631112557E-01 -4.432254336464E-01 2.830923250484E+03
 4.717927681159E-01 -5.286029911055E-01 -1.735793386228E-01 -2.106162506035E-01 1.848421457133E-03 -9.104970993761E-02 1.152437109582E-01 -5.306834657128E-01 -4.053128811479E-01 -1.748697875517E-01 3.532680649212E-01 -1.016196607563E-02 -2.927964357115E-02 -5.556074945674E-03 -3.004825343947E-01 -4.719229712911E-01 8.294813487944E-02 -1.603181855819E-01 -1.835496269004E-01 -1.186714898225E-01 -2.337603963469E-01 3.317879748798E-01 -1.242286612811E-01 2.314433193516E-01 -1.486498922496E-01 3.977399064363E-03 2.765265671313E-01 -3.352226464955E-02 -4.025673563633E-02 3.629447858591E-01 4.391926362227E+02 -7.331038333131E+02 3.698731377141E+01 -2.863750164169E+01 -1.533049090789E+03 2.504298100861E+01 -5.010162509621E-02 8.195682364688E-01 -4.399131535492E-01 1.622050551282E+00 -1.070422514569E+00 -3.533646353369E-01 2.200373945093E+01 2.885602016068E+03
 2.710756355370E-01 3.548399281993E-03 5.816170992327E-01 1.719750712867E-01 -1.654883830161E-01 4.684209831400E-01 2.269928906796E-01 8.018298663847E-02 2.691773042781E+00 4.834592579111E-02 1.842218246995E-01 -1.619806714445E-01 1.140068730681E-02 1.281993027256E-01 9.748639347334E-01 -5.433564916516E-01 -5.102998741241E-01 -4.905574614978E-01 -2.230145990307E-01 -2.197472775655E-01 1.146281557390E+00 4.311695559795E-02 -5.496470820073E-02 -4.926892235778E-01 -1.315361031965E-01 -1.667617645166E-01 -1.199937603966E+00 -5.972076051682E-02 -1.794625277072E-01 -9.056704100303E-01 -6.463338092270E+01 3.833348759050E+01 -9.082675453683E+01 -2.139606913712E+01 2.439114310328E+01 -7.900906434459E+01 -7.472697700629E-01 1.593233301998E+00 5.615217759652E+00 1.915778958281E+00 -1.217314428946E+00 -8.219127398077E+00 1.450848368525E+02 -4.628358685859E+01 1.979922071908E+02
 -1.581019461742E-01 -2.149882781089E-02 1.068841339803E-01 -7.336049240672E-02 -1.796951332504E-01 -5.394616142889E-01 4.238806032382E-03 5.872735508181E-02 2.112218626090E-01 -4.371589855761E-02 -4.449913288501E-02 -7.493861509685E-03 1.710544323981E-02 1.638620949662E-02 2.295959859781E-01 -1.965327128354E+01 3.504558163681E+01 -9.196300678822E-01 5.551708463386E-02 2.468370275238E-02 5.338734257820E-02 -2.900425608348E-02 2.890229297984E-02 -2.742631532113E-01 -3.903816037193E-03 -4.240645541674E-02 -1.664618795110E-01 -3.314441790400E-03 2.393563807042E-02 -2.610095751388E-01 -1.218732046698E+03 -4.255703902361E+02 -2.100338270150E+01 -1.139616687090E-01 1.220495383032E-01 9.879210242969E-01 -1.177763642073E+03 4.247014432535E+02 -1.210794922160E+01 -4.739275456509E+02 -9.967449876663E+00 -7.294077297877E+00 -1.946870373459E+01 -3.308993039249E+01 5.172966247464E-01 2.754300366245E+03
 -1.440979185801E-01 2.946904127571E-02 -2.040054649261E-01 -2.577768321381E-01 1.102103274509E-01 3.763516335601E-01 -1.108482625316E-01 1.330545026064E-01 -1.068921896058E-01 5.555119789096E-02 -5.943232071118E-02 -1.173175780552E-01 -3.710826536530E-03 2.056362948786E-02 -3.326105009204E-01 -3.271688988350E+01 5.882707494335E+01 -1.785367862945E+00 7.704383749250E-02 5.561730808418E-02 -8.823795476743E-02 -8.085949239413E-02 -1.010961504666E-02 3.989065492089E-01 9.716221510564E-02 6.209442047209E-02 1.873484733947E-01 -1.083978117260E-02 -9.107875639697E-02 3.785545473553E-01 -4.289559901427E+02 -7.093984298953E+02 2.902337031233E+00 -9.185995306479E-01 -7.435791326669E-01 3.222652030377E-01 4.270792712959E+02 -7.168779232263E+02 9.627671263164E+00 -2.948553256480E+00 -1.496051003953E+03 2.395297566096E+01 3.583486971777E+01 5.944797100503E+01 -1.552144406383E+00 4.817013550436E+00 2.805038177708E+03
 -3.552180872572E-02 4.926996062686E-02 4.988915725084E+00 1.011343667259E+00 -7.373955827703E-01 -8.537454356522E+00 1.683018126885E-01 2.783098515740E-01 1.041455429161E+00 3.454056647759E-01 -5.133821091599E-02 6.072442187517E-02 7.920893360037E-02 1.816785318941E-01 7.119916227667E-01 4.335664636897E-02 -2.294898176445E+00 9.038348262678E+00 -3.457571230354E-01 -2.475783402373E-01 5.140617932775E-01 -1.613187183565E-01 2.753269328842E-01 -3.871097517294E-01 -1.154740076659E-01 -3.199646185416E-01 -6.803984326921E-01 -1.135988483879E-01 -1.863440445551E-02 -7.324965364514E-01 -1.791388018393E+01 7.117951567740E+00 -8.483456642281E+01 -1.855264863925E+00 9.957978934515E-02 -1.077713843064E+01 -1.540718957092E+01 1.384235524956E+01 -8.024444822424E+01 -7.942938184641E+00 1.827255434605E+01 -8.221734115117E+01 -1.968050772857E+00 -5.795766905929E+00 1.122005013527E+01 3.882410314847E+01 -3.527699288555E+01 1.926247514528E+02
 3.826226917257E-01 -4.002403636111E-01 1.049072496819E-01 -1.077414689660E-01 -3.806086570111E-02 -6.314608073147E-03 1.134651614766E-01 -4.496561978386E-01 1.551458871118E-01 -1.851134434902E-01 2.445567274085E-01 2.563139139432E-02 6.501491131673E-03 -8.520550178558E-02 1.062972407211E-01 -4.360464410120E-01 2.933491203467E-02 4.550669962637E-02 -1.693341710005E-01 -1.056581516721E-01 3.493812228694E-03 2.544698673770E-01 -8.442960856969E-02 -1.284183201499E-01 -9.227355476875E-02 5.049778905040E-02 -5.124900943530E-02 -5.038331217926E-02 6.811972761054E-02 -9.169629595672E-02 1.020176204442E+00 -1.285233027939E+00 5.158811537978E-01 -1.516286679699E+03 -5.246040387705E+02 -5.719596066363E+01 6.504767723438E-02 5.214516418950E-01 8.074759726492E-02 -1.266304801220E+03 4.373263925088E+02 -4.264710116129E+01 4.519382373562E+01 -3.354681334258E+00 1.647782983666E+00 3.946215504902E+01 6.509067302438E-01 2.517762844011E+00 3.074856443286E+03
 9.849502460454E-03 -1.313705696176E-01 1.919979972543E-01 -1.413851819218E-01 1.804088147356E-02 1.506556673547E-01 8.617621711887E-02 -6.766593890980E-02 2.937258448505E-01 -1.158056281894E-01 6.445529209741E-03 4.534768368356E-02 -2.479130208451E-02 -1.789520544301E-02 2.659971857746E-01 7.349254909262E-02 8.366004379895E-02 4.404468745909E-02 4.123450668591E-02 4.283722440517E-02 1.129224586431E-01 1.130721113231E-01 -2.731076469218E-02 -2.185750527960E-01 -7.139821226214E-02 -1.724584018008E-02 -1.998916762915E-01 6.073092381331E-02 3.807333885153E-02 -2.836635790884E-01 -1.233958726433E-01 -9.832582866642E-01 -1.023655332116E+00 -5.365666158301E+02 -8.698610735986E+02 -1.347955294654E+01 -3.367715766461E-02 1.028005319986E-01 5.471363374629E-01 4.231306460039E+02 -7.259876100444E+02 2.207527356205E+01 -8.695714501519E+01 2.729585308515E+00 -2.531732554217E+00 7.136630818108E+01 -3.814225118071E-01 4.348163925786E+00 9.123331029082E+01 2.543112815095E+03
 -1.938179794358E-01 -1.870682828767E-01 -6.156731859111E-01 -3.281561906154E-01 -1.096964708017E-01 4.076337094232E+00 -2.403251299741E-01 -2.055171396974E-01 -2.115105054429E+00 -1.565423842426E-01 -1.381637077626E-01 3.439662053623E-02 -2.418490321135E-02 -1.564959704247E-01 -1.019706949878E+00 3.718343023121E-01 5.596943067098E-01 2.707435237161E-01 1.966286131637E-01 2.146898303316E-01 -9.572152719131E-01 1.527711358995E-01 3.885236613682E-02 5.246329031894E-01 1.213080241322E-01 2.468094898039E-01 1.108869605817E+00 5.888712689899E-02 1.472142507361E-01 1.002968980320E+00 1.619450504906E-01 1.636411107631E-01 -7.426413415590E+00 -5.554064888257E+01 -1.168217499319E+01 -7.245620837433E+01 5.869351619707E-01 -1.352287969432E+00 3.533313118488E+00 -4.481527875702E+01 2.578801898369E+01 -7.913800517758E+01 2.687664386920E+00 1.212239525709E+00 6.878310003310E+00 -3.728481739819E-01 3.419335361974E-01 8.377321981437E+00 1.107346205441E+02 -3.116857364558E+01 1.590679955043E+02
 1.356429630744E-01 3.168554017897E-02 5.586191617587E-02 -1.227662933458E+03 4.463700188395E+02 -1.505307656296E+00 -4.319819169194E-03 -1.276965982318E-01 -1.004580699894E-01 -5.170500451591E-02 4.928050797115E-02 7.094525555672E-02 -5.519364720408E-03 -7.928667585139E-02 -7.100660147177E-02 3.990050249788E+01 -3.369382634188E-01 1.305272846094E-01 -1.764318326036E-02 -3.837721771115E-02 -8.710129473018E-03 -1.985338359322E+01 3.565076426901E+01 1.992194365736E-01 -1.122918348537E-02 7.717849961388E-02 8.845997304206E-02 1.976292916533E-02 7.839285027426E-02 6.732478868869E-02 1.485451581642E-02 -2.427262498928E-01 4.930026450477E-01 4.048948508417E-01 4.098009556150E-01 -8.998999924459E-02 2.168805838341E-02 -1.656260007664E-01 -2.380223668198E-01 -1.150176994273E+03 -3.951681545177E+02 -1.486280385101E+01 -6.520619231108E-01 -3.397404177747E-01 -3.325766654177E-01 3.731744188469E+01 2.176122367065E-01 2.984871659436E-01 -1.844670315027E+01 -3.266786684936E+01 3.810532353547E-01 2.738442224080E+03
 5.549075774953E-02 -9.417356188080E-02 -1.561594019348E-02 4.542435977459E+02 -7.415083127413E+02 -1.688100897145E+00 4.545168075481E-02 -1.581478627631E-01 -1.545751009187E-01 -7.956660135338E-02 2.525217220351E-02 -1.957711967980E-02 9.188909167616E-03 -2.831109426704E-02 -6.914063300348E-02 6.701103008013E+01 -5.675935097634E-01 4.252811820572E-01 -5.222691880204E-02 -3.349805633845E-02 -1.505608443240E-01 -3.329276636164E+01 5.957489067892E+01 -5.010826794786E-01 -3.584879271993E-02 2.600779859336E-02 8.645340897220E-02 -1.876083165823E-02 4.274105052124E-02 6.157668294480E-02 2.863255702627E-01 -3.062651044899E-01 8.350336108653E-01 7.085100014745E-01 7.261548843701E-01 8.499056285675E-02 -5.209249223485E-02 2.113955590342E-01 3.939663561934E-01 -3.920757319831E+02 -6.766661917516E+02 -5.070755916111E+00 -1.184742721366E+00 -9.107186101076E-01 -2.829859741549E-01 -6.575042756704E+01 4.271042030508E-01 -2.612364373261E-01 3.113114570210E+01 5.743760554943E+01 -2.380579148726E-01 -6.781290054905E+00 2.805428503995E+03
 2.683033343439E-01 -6.024335235170E-01 4.156729663008E+00 -1.653903340562E+00 -9.304533166960E-01 -8.290175813879E+01 -2.283823185722E-01 -3.976266668746E-01 -5.629488457066E-01 -5.972935707374E-01 -1.639929791550E-01 4.513991128019E+00 -8.894262609102E-02 -1.902513188937E-01 -6.629062540153E-01 -1.003725781959E+00 8.473963211016E-01 8.990902477308E+00 3.420302505160E-01 5.319557730251E-01 -3.446989557953E-01 8.695136584972E-01 -9.058745749261E-01 9.807369628687E+00 1.250234648245E-01 3.567935716393E-01 5.521622956981E-01 1.215717127702E-01 -5.230510052350E-02 7.131182450157E-01 -1.087268675496E+00 -8.146887734909E-01 6.665159916286E+00 1.136201972769E+00 -6.191655697761E-01 5.535326344994E+00 1.262167049196E+00 -2.836928477636E-01 -9.406274885890E+00 -1.473724750613E+01 -1.001038576265E+00 -8.195822768673E+01 -7.382846366413E-01 1.428792219215E+00 -7.979734154254E-01 1.701860330422E+00 -3.874995723739E-01 7.674674067507E+00 -2.888995512280E+00 -2.880425820980E+00 1.016822611604E+01 1.759124620600E+01 1.794422665358E+01 1.873079057218E+02