#BIOSYM hessian 1
@Type: Hessian Update
@Units
 distance: 	A
 energy: 	Kcal/Mol
#header
@natom 67

#label
C1      C2      C3      C4      C5      C6      C7      C8      C9      C10     C11     C12     C13     C14     C15     C16     C17     C18     C19     C20     C21     C22     C23     H24     C25     C26     C27     C28     C29     C30     C31     C32     C33     C34     C35     C36     C37     C38     C39     C40     C41     C42     C43     C44     C45     C46     C47     C48     C49     H50     H51     H52     H53     H54     H55     H56     H57     H58     H59     H60     H61     H62     H63     H64     H65     H66     O67

#element
C  C  C  C  C  C  C  C  C  C  C  C  C  C  C  C  C  C  C  C  C  C  C  H  C  C  C  C  C  C  C  C  C  C  C  C  C  C  C  C  C  C  C  C  C  C  C  C  C  H  H  H  H  H  H  H  H  H  H  H  H  H  H  H  H  H  O 

#matrix
201
 2.779558438134E+03
 -1.451934461021E+01 2.806821449180E+03
 -6.575654350293E+00 -1.638266750227E+01 1.915498150913E+02
 3.878711802289E+01 6.645758233035E+01 -1.437715094158E+00 2.792632738684E+03
 -2.663785128403E-01 -7.363996429393E-01 -2.494124106177E-02 -2.059378591261E+01 2.769796648649E+03
 -6.557069234523E-01 -5.033276444247E-01 8.505109271392E+00 7.423865170535E+00 -3.778780506699E+01 1.920202600550E+02
 -1.899336267033E+01 3.406045609879E+01 -2.802127754794E-01 1.616496568127E-02 2.541761167128E-03 -7.320809897520E-02 2.794059153413E+03
 -3.294943742822E+01 5.911526587211E+01 -4.458486612102E-01 1.189869414914E-01 -1.800850195884E-01 1.203938088468E-01 2.467199168070E+01 2.750413453521E+03
 2.300972193482E-01 -4.686923900508E-01 9.074647542320E+00 -4.619378873810E-02 -2.316728658974E-02 9.520383069802E-01 -7.305637869131E-01 -1.871685782604E+01 1.872337827839E+02
 3.747641312186E+01 -6.666084268003E+01 8.396867979150E-01 -1.931869519862E+01 3.506855752853E+01 -1.825251699701E-01 3.979129686781E+01 6.887290728312E+01 -7.908361951953E-01 2.797239456034E+03
 -1.553339530537E-01 1.473330549748E-01 1.664922367693E-01 -3.267281397302E+01 5.899200949173E+01 -2.928109119033E-01 -3.003226157394E-01 -5.008140693419E-01 1.448446713940E-01 1.526214211717E+00 2.804899176319E+03
 5.438091972273E-02 1.586700109099E-01 8.687403033164E+00 3.553895132845E-01 -4.397699567942E-01 9.071262940141E+00 -2.380413316098E-01 -7.854144448660E-03 9.569100888162E+00 9.102569737146E-01 -2.567717536739E+01 1.935437687718E+02
 -4.733526998685E-02 5.481845851942E-02 3.951659655968E-02 -2.463661120235E-02 5.829899786307E-02 5.097555061059E-02 5.087202201637E+01 -8.297325580172E+01 8.633317747315E-01 -2.137560165084E+01 3.738603154170E+01 -2.840137500421E-01 2.600608870443E+03
 2.091707581326E-02 -1.185529631964E-02 5.929852429728E-02 8.477366390422E-02 -1.013673821450E-01 6.545656420818E-02 -3.434409547436E-01 3.894074714567E-01 2.056775438773E-02 -3.494189411422E+01 6.107460394510E+01 -2.632644812105E-01 -1.702808895776E+02 3.050814983003E+03
 -4.619237245716E-02 2.303390672750E-03 1.360595264821E-01 -1.335368005852E-01 2.165787767782E-02 9.120834413448E-01 1.090537093259E-01 1.181846397682E-01 1.387294039799E+01 2.721419786171E-01 -3.975207091956E-01 1.087740522356E+01 5.375243955800E-01 -2.720188291275E+01 1.510900325508E+02
 -1.217461768323E+03 4.402019168485E+02 1.455238991086E+00 -4.614434341488E+02 -9.222513036599E+00 2.036837656962E+00 -4.830728172357E-02 -1.242832063956E-01 3.628654309189E-02 -3.216823759052E-01 -2.048771877383E-01 -4.186499582399E-02 -1.742769968190E-02 -4.555950229217E-02 5.965133891543E-02 2.814076203973E+03
 4.341528451760E+02 -7.321717830540E+02 5.314884961961E+00 -7.671069578668E+00 -1.431148660389E+03 1.903628046045E+01 3.281614693790E-02 2.239811402940E-02 8.245854203836E-02 -3.063968899549E-01 3.150398076122E-01 -1.640381089541E-01 -7.227376046686E-02 7.215302908432E-02 2.066477060259E-02 7.832055914756E+00 2.770964694535E+03
 8.928917469416E-01 4.238864553727E+00 -8.245771053677E+01 4.726477082774E-02 1.878208550677E+01 -8.008249041010E+01 4.089092072772E-01 -1.602464733493E-02 5.567225772237E+00 -2.003890214161E-01 -2.133011815304E-01 -8.892775576723E+00 -5.554939806256E-02 -2.153764059057E-01 9.331859189241E-01 -1.896258438915E+01 -3.511028440946E+01 1.927718416798E+02
 -1.201561015802E+03 -4.135513272806E+02 5.084653425086E+00 1.096989166873E-01 -3.687062782559E-01 7.775190184472E-02 -1.237729117739E+03 4.403400611234E+02 -2.731000098888E+00 -4.694734717621E+02 -5.076073798813E+00 2.166182359841E-01 -1.318903484476E-01 -2.383593891877E-01 4.688539975178E-03 -1.898371853482E+01 -3.194860259766E+01 5.917235180034E-02 2.794130984515E+03
 -4.115465777146E+02 -6.932755472216E+02 5.089705686236E+00 -2.576043172988E-01 -7.456864529618E-02 -4.147491987956E-01 4.488392881069E+02 -7.318100507329E+02 5.078354597899E+00 -8.018476768553E+00 -1.461105355810E+03 1.266805019940E+01 -8.491483304092E-02 1.863690311602E-01 -2.026480341782E-01 3.460811245216E+01 5.825059704544E+01 -9.045469281057E-02 -2.300320439775E+01 2.767470798678E+03
 5.495308238955E+00 5.031768114227E+00 -8.058821913177E+01 1.008479727691E-03 5.795765654783E-02 -8.767801835447E+00 -3.049614381795E+00 5.089696857766E+00 -8.240812091313E+01 -3.251077504776E-02 1.229592364458E+01 -8.208196386665E+01 -4.473911334318E-03 -1.233178699631E-01 -1.018397523734E+01 -2.242590249220E-01 -1.386809006308E-01 8.807820957882E+00 -2.361775828076E+00 -2.239644077162E+01 1.909760792703E+02
 -1.617359911496E-01 8.647787708008E-02 -2.026055036939E-01 -1.226155438775E+03 -4.201946729132E+02 3.594509651681E+00 2.221466234256E-02 2.168661552855E-03 1.782096890879E-01 -1.213819211280E+03 4.357312719084E+02 -5.112726155439E+00 9.131077597570E-03 -1.950536627970E-02 1.046517969821E-01 3.754450423283E+01 -3.700680150408E-01 4.453627281698E-01 3.981642233623E+01 -2.846469741955E-01 2.315124997510E-01 2.802573641768E+03
 4.656177772404E-02 1.767156200435E-01 8.738989067944E-02 -4.234001547827E+02 -7.049832377708E+02 7.773531146413E+00 -7.827967993121E-03 8.528287558202E-02 -2.026653140570E-01 4.384662971716E+02 -7.321778405388E+02 7.363693684580E+00 -2.990973585957E-02 2.684826697158E-02 -8.256682702467E-02 -6.690042047765E+01 3.086649343517E-01 -3.859921628648E-01 6.756282207060E+01 -3.515395449988E-01 -8.835903107337E-03 3.726730516825E+00 2.798977523425E+03
 2.962501791922E-01 -2.557644424877E-01 -8.871799210074E+00 4.168599994105E+00 8.318628194173E+00 -8.262227189001E+01 2.222945741260E-02 -1.248693622643E-02 3.919054893153E+00 -5.819572310733E+00 7.226306041367E+00 -8.292943013984E+01 2.592321639865E-02 -1.535362783551E-02 4.033954549430E+00 9.324950887087E-01 1.007172188491E-01 8.376740400939E+00 -5.562415046666E-01 3.216145567073E-01 9.029513449749E+00 1.513518562094E+00 -3.192013235043E+01 1.947697474347E+02
 -3.442430292639E-02 5.407959487620E-02 5.288163906247E-02 -7.689702549137E-02 5.620638913770E-02 -1.734308636495E-02 -1.231241886069E+03 -4.431818424467E+02 3.410559030452E+00 2.909418641112E-03 -9.028840290575E-02 9.870217082941E-02 -5.659331446409E+02 -5.375489565977E+00 7.866077505574E-02 3.646254707548E-02 -3.977491207400E-02 -1.465605326967E-01 -2.137736592018E+01 -3.691641970629E+01 2.773494971107E-01 2.432923455562E-02 3.191880267617E-03 -2.889878275908E-02 2.595214285596E+03
 -3.591400254755E-02 -2.178078700920E-02 2.918495016419E-03 -9.356805406048E-02 1.360168291083E-01 -1.119708223260E-01 -4.581014731880E+02 -7.699815300268E+02 5.415869717259E+00 -1.529240531877E-01 6.075695540590E-02 -2.523097537516E-01 -1.609347259490E+01 -1.818782389905E+03 1.637117333811E+01 5.898475303007E-02 -2.797471670254E-02 1.782112356354E-01 3.521702316396E+01 6.053410647939E+01 -3.537294336286E-01 9.947565768701E-03 -4.367171577292E-02 2.540998231650E-02 1.858134671914E+02 3.029040379353E+03
 -3.715174958940E-02 5.481348054167E-02 4.493144329089E+00 8.813421752209E-02 5.316627100217E-02 -9.471120393139E-01 3.925181187457E+00 5.531283825094E+00 -7.808129958962E+01 3.167775691058E-02 -1.296087341378E-01 -1.043453422967E+01 2.551945518197E-01 1.617594207731E+01 -7.177009981910E+01 -5.782158679064E-02 -3.530193703686E-02 -9.851903754516E-01 -2.659298310129E-01 -3.579498597022E-01 9.522479907280E+00 -1.877476818057E-01 2.203958012198E-01 6.483569643199E-01 -1.981275978196E+00 -2.529681476575E+01 1.529980521182E+02
 6.274364023721E-02 -9.013733054585E-02 -1.238793174676E-01 6.858070884506E-02 2.756830174778E-02 -1.188916287403E-01 -1.009092337391E-01 -1.864215764162E-02 2.688267321787E-02 -1.230826285809E+03 -4.347532184615E+02 4.173813124060E+00 -1.260047189775E+03 4.609668642272E+02 -3.638601650428E+00 -3.939572445767E-02 3.528262136595E-02 1.856552755669E-01 3.953047552979E+01 -2.428347762645E-01 -1.037520422526E-02 -2.009168794858E+01 -3.407453360195E+01 3.522066113658E-01 5.153939671152E+01 -2.485237657680E-01 4.795284574242E-02 2.847979861231E+03
 -4.563723156624E-02 9.765071982990E-02 -5.977547494445E-02 -7.928459215251E-02 1.590879401823E-01 -4.414843358765E-02 2.267915577259E-02 2.225412744747E-01 -1.412372781306E-01 -4.333143399669E+02 -7.300443494599E+02 6.327156364194E+00 4.509113167754E+02 -7.834890067487E+02 6.479779079490E+00 -1.590571630250E-02 -1.753955228274E-01 2.209763675445E-03 -6.834302761740E+01 2.280970863903E-01 3.659544565167E-02 3.506610252021E+01 5.932675731689E+01 -5.267118252622E-01 8.451315786821E+01 -5.927895335281E-01 2.006941586124E-01 -3.578115455621E+01 2.884715723894E+03
 3.544504817783E-02 4.329763260226E-02 4.359034190316E+00 1.101105714609E-01 -1.592904681753E-02 3.785995795165E+00 1.393654558789E-03 -2.039074924546E-01 -1.169834905367E+01 4.815472782491E+00 6.559166963510E+00 -8.509300191811E+01 -3.793982506337E+00 6.641786908295E+00 -7.831442524860E+01 -2.143914323242E-02 1.291250642879E-02 -7.817933117727E-01 5.294410892310E-01 1.506990358029E-01 9.473525122758E+00 -5.524821086440E-01 -5.507099242974E-01 9.692119993589E+00 -6.985600582232E-01 1.649214829064E-01 1.207252949005E+01 -5.573087189410E-01 -2.728791234302E+01 1.863082009513E+02
 -6.337540141476E-01 4.434180677475E-01 -3.986716678362E-01 -1.439450953341E+00 1.647570999709E+00 2.537635642538E-01 -1.927914253687E-01 6.726011092451E-01 8.563445692591E-01 1.996732204929E-01 -6.816637216695E-02 -2.946479102715E-01 2.034746071472E-01 2.014830504824E-02 1.970148236978E-01 3.883962253378E-01 -1.499067316683E+00 5.299001731865E-01 8.215225376655E-01 -2.610880262917E-01 2.491020735695E-01 2.854950906453E-02 1.081324121506E-01 4.363912599365E-01 -5.585206093903E-02 -2.355555508406E-01 -8.514870245546E-01 -4.254297566118E-01 -7.744777726409E-02 -4.438888647343E-02 2.765184317324E+03
 6.494151201046E-01 -6.555492168895E-01 -5.629980501248E-02 1.093121385574E+00 -1.575880681455E+00 5.860389516682E-02 -4.584457608052E-02 -7.495048957465E-01 2.765835916586E-01 2.769951305728E-02 -1.209441603811E-01 5.620663668268E-02 2.461266569404E-01 -6.083795926740E-01 2.596447876283E-01 -2.247807727186E-01 1.369250307289E+00 1.829755777888E-02 -5.677105114734E-01 2.000720582061E-01 -4.481319006266E-02 -1.480011062072E-01 1.043937963084E-01 -2.503001847276E-01 3.935113443835E-01 6.177206506175E-01 -2.495682294948E-01 -1.508414025283E-01 4.911053805274E-01 -2.347079608626E-01 -1.542581302005E-01 2.807070691150E+03
 1.456026435205E-01 -3.290491802119E-02 2.645682634606E-01 4.282559857524E-01 4.579518096537E-01 -3.422826840775E+00 -1.311665308225E-01 -3.422594726291E-01 -5.649773004560E+00 -9.779856953399E-02 -6.017851150028E-01 -5.114075122304E-01 3.808873881194E-02 -2.678007381043E-01 -4.791353929317E+00 2.421589080417E-01 -4.617908330321E-01 1.931572443784E+00 3.638312174768E-01 9.823273673165E-02 -1.004924371315E-01 -1.675794240630E-02 2.954888959860E-01 3.630528284609E+00 2.706959642162E-01 4.641185633561E-01 5.180031221469E+00 -1.104567820862E-01 4.511158460196E-01 4.340866022503E+00 -4.056028861562E+01 -4.779809848395E+01 2.277514674223E+02
 -9.722526534915E-01 6.580449859070E-01 -1.952225341918E-01 -1.516192290241E+00 2.092366864963E+00 2.770552065120E-01 -2.606979850484E-01 7.849049399931E-01 7.900605306757E-01 1.805955660792E-01 -1.250435949735E-01 -2.533623423662E-01 4.312956612118E-02 1.505611719572E-01 2.231801234020E-01 5.176823728428E-01 -2.066229842854E+00 8.514122565679E-01 1.083985174292E+00 -2.658902216370E-01 3.672491238724E-01 -8.624222288945E-03 1.945756146049E-02 6.699334167157E-01 -1.007662167432E-01 -3.377800760891E-01 -8.014030220643E-01 -3.336729405411E-01 -2.472035116171E-01 -2.654835574308E-02 2.970430168546E+01 7.876280002808E+01 -1.051701617562E+01 2.784753167015E+03
 -8.803060379552E-01 7.145024440967E-01 -1.617942483467E-01 -1.769574173382E+00 2.124356950820E+00 3.941011022059E-01 1.577209405937E-02 7.991275283828E-01 7.338100334646E-01 -3.836066394156E-03 1.876376114005E-01 -3.376207200691E-01 9.665585212545E-03 2.665872199018E-01 2.669290226791E-01 4.141982737109E-01 -1.870966749694E+00 7.518940515455E-01 9.582289525040E-01 -3.900879222154E-01 4.093654467249E-01 3.972842108996E-01 -2.733283572497E-01 4.530250992148E-01 -4.640726007140E-01 -4.672608104994E-01 -8.463057290653E-01 -1.451645657373E-01 -4.485096467557E-01 -1.128737805111E-01 -1.471875187647E+01 7.534451932725E+00 -1.908687861246E+00 2.667761907053E+02 2.826442927037E+03
 5.788787980976E-02 4.189358916282E-01 2.017289682796E-01 6.785689898980E-01 -3.125790198945E-01 1.252643514893E+00 8.014100188964E-02 1.975675674712E-01 1.892275983013E+00 2.364621660899E-01 1.859068361410E-01 1.599728638462E-01 1.017423029244E-01 2.971839478998E-02 1.899303790352E+00 -5.555852395602E-01 -5.994518701974E-01 1.297664614948E+00 -3.242240605354E-01 -2.828091789852E-01 3.627287311902E-01 -7.941824237219E-02 -8.360363558224E-02 -9.659536136937E-01 -5.952416122740E-02 -9.907291637377E-02 -1.912321506358E+00 -7.944908963131E-02 -1.709276166594E-01 -1.662987848816E+00 -8.386394141319E-01 -3.001327177527E-01 4.725438596388E+00 -1.944952061761E+01 -1.913341447533E+02 1.742468515072E+02
 -1.986884964930E+01 -3.408242776054E+01 5.263567794795E-01 3.853390245771E+01 -4.868009812426E-01 -5.903640997640E-01 1.303044020861E-02 -2.483113751913E-02 -1.233905328404E-01 4.706809733966E-03 -6.500051703408E-02 9.300588004409E-03 2.269754903227E-03 -2.637026096049E-02 -6.205718399090E-02 -1.254245516222E+03 -4.357914571531E+02 1.815280419495E+01 -7.434197166776E-02 6.094513122109E-02 -9.888848911541E-02 6.312796221058E-03 7.916051340692E-02 -8.602491903064E-02 7.047396621289E-02 5.728555784138E-02 9.364924204678E-02 2.440556732696E-02 9.497852913011E-02 2.205230161231E-02 -1.868237507924E+01 3.314637983082E+01 -4.043209055900E-01 1.251505259094E-01 7.745718119390E-01 -2.557098729167E-01 2.788154805000E+03
 3.567890382934E+01 6.062310264632E+01 -1.297890395441E+00 -6.799014101145E+01 3.969979403638E-01 8.670525936910E-01 8.803433730361E-02 -4.039680166084E-03 3.657995425563E-01 2.971747120641E-02 4.141240983970E-02 -1.919233734393E-02 -7.448444817462E-03 -2.429657136455E-02 2.457128593520E-01 -4.395753667014E+02 -7.244209935375E+02 1.225385537418E+01 -1.092148176415E-01 -4.701294847181E-02 7.690259981193E-02 4.994143085989E-02 -6.968651679061E-02 -1.233205590132E-01 -6.091750527912E-02 -2.573053240353E-02 -3.759087860577E-01 3.819191965041E-02 -4.913813701021E-02 -2.141067950075E-01 -3.291287882888E+01 5.752556553946E+01 -1.203543030035E-01 5.579947256708E-01 1.559310329504E-01 1.434459743878E+00 1.952911719741E+01 2.796259230233E+03
 -3.243770209781E-01 1.854482456061E-01 9.755372921249E+00 2.086644132219E+00 -9.812018560709E-03 9.061855584044E+00 -7.053085356652E-03 -4.692991236377E-03 -1.693496771865E-01 1.676469678553E-01 1.780730894675E-01 -1.353681000812E-03 -2.351403277273E-02 -4.889595150966E-02 -1.524288891576E-01 1.597642058064E+01 1.087741370899E+01 -8.368938054340E+01 9.364753187843E-02 -2.847334214236E-01 4.534730569536E+00 -3.455747806829E-01 1.250274409646E-01 4.570547443813E+00 -5.549437104163E-03 6.287583889329E-02 1.736345208503E-01 6.177762934024E-02 4.122677382787E-02 1.256516333750E-01 5.690202127561E-01 -2.155335358358E+00 9.353506659638E+00 -1.029207292566E-01 -6.197762651745E-03 -2.387407958660E-01 -2.371152268442E+01 -2.337274470243E+01 1.917615614647E+02
 -6.516815738586E-01 4.551177851942E-01 -1.171926484342E-01 -2.001226318978E+01 -3.006703061713E+01 1.040664322983E+00 -5.140643207946E-02 5.445941184519E-01 8.104078268677E-01 7.823112354238E-02 -4.562532335042E-02 -1.505000491096E-01 -5.692543993609E-02 1.631887614080E-01 4.386938475332E-01 3.220449270421E-01 -1.498289762505E+00 6.932810806685E-01 6.821991977718E-01 -1.713196949263E-01 3.400514884602E-01 1.848728699900E-01 -9.273026602786E-02 3.511618685542E-01 -2.412403687798E-01 -3.007141539865E-01 -8.144845521813E-01 -8.886285140162E-02 -2.993236464727E-01 -2.564639189588E-01 2.955493946728E+01 -6.424725013705E+01 5.308950134036E+00 -3.261596746630E+01 3.218825336639E+01 1.350567915430E-01 3.986260225633E+01 6.721183841759E+01 -4.291770827096E+00 2.768073326107E+03
 2.819296279146E-01 -1.750616370974E-01 2.355759473678E-01 3.472241246742E+01 5.560656078239E+01 -5.748924900711E-01 1.534724561045E-02 -2.221268094381E-01 -1.333073717616E-01 6.588972366089E-02 -1.103289046354E-01 1.422795304272E-02 6.661826755977E-02 -1.923318166422E-01 -1.842199072313E-01 -5.366538345029E-01 8.133099468032E-02 3.429369874854E-01 -2.320201200433E-01 6.836402097547E-02 -7.206787804903E-02 -4.607296562189E-02 1.492455402993E-01 8.655280632211E-02 1.344509957304E-01 1.968250930575E-01 1.719809611612E-01 -2.364017280158E-03 2.282099392005E-01 1.446259142405E-01 7.288453817876E-01 -1.471176245194E+00 -5.128978278653E-01 -3.987618845400E+01 7.626368385347E+01 -6.253830903901E+00 -8.343453230306E-01 -5.806185831932E-01 -9.325072323098E-01 -2.319545078151E+01 2.763580200466E+03
 -6.741055604619E-01 2.463479583205E-01 -1.177097726791E-02 -5.092075844784E-01 2.431467209008E-01 8.074516610154E+00 -3.027454428308E-01 4.542006151425E-01 -1.902213171552E-01 2.760007016009E-01 5.242606211071E-01 1.840616624802E-03 2.000590160437E-01 4.248255191494E-01 -1.360117161739E-01 7.896209184873E-01 -5.903592223378E-01 -9.008711413282E+00 4.359689949134E-02 -5.055936623230E-01 -2.948838418404E-02 -9.612940077799E-01 -2.609030393705E-01 4.336573321167E+00 1.871431592230E-01 -4.372140342446E-01 1.828274193695E-01 -4.768647317207E-01 -3.377810411340E-01 1.080623280087E-01 -1.646205408952E+00 2.788840526928E+00 1.034194350428E+01 2.019097238965E+00 -4.491258542103E+00 1.254555624260E+01 -1.213308317466E+00 -2.129401668088E+00 8.802917654720E+00 5.024384734391E+01 -1.040779555619E+02 1.903101199515E+02
 3.315579273175E+00 -2.901908002216E+00 1.462989413039E+00 5.485721650593E+00 -7.456499126786E+00 -1.651835187216E+00 8.613575823700E-01 -3.101711674938E+00 -4.546738140189E+00 -7.594318780214E-01 -9.307247365135E-02 1.257361457227E+00 -8.242904877807E-01 -2.843917121868E-01 -1.532701295512E+00 -1.308172901279E+00 8.096533111821E+00 -3.478983661611E+00 -3.779084156731E+00 1.457303691894E+00 -1.349724921352E+00 -4.313560790051E-01 4.023225700324E-02 -1.589858825646E+00 4.249945662929E-01 1.103587224581E+00 4.529666960441E+00 1.450633873212E+00 7.417481545504E-01 7.761084941666E-01 -1.158434538901E+03 4.108172697196E+02 1.714187854568E+01 -4.543600218108E+02 4.698246924672E+01 3.422837068824E+00 -1.653866844537E+00 -2.642525247615E+00 1.216732543216E+00 3.731414580621E+01 -4.897896331059E+00 1.964668820379E+00 2.625305634407E+03
 1.903067085929E+00 -9.266052230340E-01 6.776862005673E-01 3.971612983341E+00 -4.469575995372E+00 2.463464054321E-01 5.705446104638E-01 -1.326710254847E+00 -4.959786362708E-01 3.294484470647E-01 -1.523359156089E-02 4.237491099314E-01 -5.400187265638E-02 -4.286631912863E-01 2.419327867673E-01 -1.823783712019E+00 3.104697863888E+00 -4.148527867088E-01 -2.307972739466E+00 2.267535195485E-01 -2.162971595639E-01 -7.244811784907E-01 7.594426887311E-02 -5.942066233112E-01 1.996645074491E-01 4.491541525007E-01 5.838700737175E-01 1.799327084375E-01 3.353034756750E-01 -2.962330205741E-01 4.675832466764E+02 -7.637829697163E+02 2.235317520798E+01 3.902558703679E+00 -1.500021637688E+03 1.091810877121E+02 -1.062465350794E+00 6.840596897113E-01 8.281485320155E-01 2.017288491996E+01 -5.558582552294E+00 4.330915503912E-01 -1.089739934543E+02 2.825867056082E+03
 -2.922078451711E-01 2.026701736391E-01 -3.543546535515E-01 -1.061793749562E+00 1.768731105440E-01 9.599578511540E-01 1.073861017526E-01 7.441360444298E-01 2.051219697431E+00 -1.019435198772E-01 -2.680350785909E-01 1.522269494257E-01 -1.839244214482E-01 6.484843157838E-01 1.458669966156E+00 4.333862648015E-01 -6.495269053181E-02 7.646675059386E-01 3.255039821019E-01 3.474024839927E-01 -1.074300816525E-01 8.050241594479E-02 -6.690281038213E-02 -1.123306867877E+00 -6.309654492261E-03 -7.052214104608E-01 -1.778524690820E+00 3.985382437590E-01 -4.667420847175E-01 -1.279351070749E+00 -2.229049902601E+00 1.764748803710E+01 -1.134727957235E+02 7.117660291137E+00 1.214443641084E+02 -9.386992855861E+01 1.376478100754E+00 1.762885173891E-01 4.250092542525E+00 -4.884298564223E+00 -2.257293150327E-01 -1.096824188795E+01 -9.051077329503E+01 -2.578779126587E+02 3.666177219157E+02
 -1.125037473465E-01 -1.834783668341E-01 3.584894226920E-03 -5.801271044697E-01 -2.127615818044E-01 -1.208607150080E-01 7.997993827256E-02 -7.392734982290E-02 4.245708026374E-02 -2.136405920099E-01 1.834069072908E-01 -4.105278414164E-02 -7.439600436402E-02 9.806483640385E-02 1.220060761657E-01 -1.919886972556E+01 3.560495677969E+01 -5.455411436089E-01 6.570382404217E-02 3.679192536674E-02 1.211633762809E-01 1.595597239999E-01 -3.785361367844E-01 2.500972133609E-02 -1.467698825788E-01 -9.033630425464E-02 -1.154197250137E-01 1.059708289093E-01 -2.744929501298E-01 -8.531160304621E-02 -1.219214729552E+03 -4.199897615830E+02 3.219457437648E+01 2.774692971679E+00 9.570841673457E-01 -1.013417825633E+00 -1.178261872330E+03 4.251208451421E+02 7.787073943659E+00 -4.664879017669E+02 -1.350890622647E+01 1.066956462862E+00 -2.996409535326E+01 -3.929699896289E+01 3.996721879873E+00 2.753629421009E+03
 -9.816716696360E-02 -1.587445512462E-01 1.707333496745E-02 -6.822597526248E-01 8.350886602702E-01 1.635051507830E-01 8.843441102137E-02 -2.245365011051E-03 -5.220682222702E-02 -1.987086828213E-01 9.799666013672E-02 -1.091811991287E-02 -1.499004850053E-01 1.000519196550E-01 -1.098663707401E-01 -3.237223216355E+01 5.891475638039E+01 -4.239400255106E-01 2.468464293775E-01 1.107919419788E-01 3.349922565109E-02 1.813800454350E-01 -2.577046591168E-01 1.765387603640E-01 -1.970292014720E-01 -9.771584736466E-02 1.036576612109E-01 1.602095199297E-01 -1.861883458809E-01 1.233038413952E-01 -4.249140607679E+02 -7.055192262044E+02 2.364608730067E+01 3.408558712620E-01 -2.180328620130E+00 -2.855303838137E+00 4.273993723737E+02 -7.153405550116E+02 9.491188338680E+00 -6.565636958232E+00 -1.493325232225E+03 5.356122139450E+01 3.844467673086E+01 6.202701395555E+01 -3.204157097178E-01 1.729921418613E+00 2.798953704289E+03
 6.774118254874E-01 3.944424577086E-02 4.835257604724E+00 -2.460566632636E-01 -9.614098285973E-01 -6.650966980451E+00 4.238654434384E-01 -6.849488372990E-02 3.453983955102E+00 2.660383734257E-02 -1.109846227520E-02 2.013321790390E-01 -4.283182869050E-02 -2.386920057566E-01 3.286011881978E+00 4.653988489062E-02 -5.034235636362E-01 1.128096013354E+01 -3.912104338548E-01 1.070231925154E-01 6.733036320871E-01 6.354224210749E-01 -1.999609780144E-01 -1.524552134685E+00 -3.133378675159E-01 9.849752705054E-02 -3.472113139347E+00 1.666273247267E-01 -1.917235086025E-01 -2.831684242036E+00 4.360725676083E+01 2.810559813847E+01 -9.447525670073E+01 1.601048181217E+00 2.879888851811E+00 -6.004218253981E+00 3.025058183480E+00 9.495101401181E+00 -8.125240761748E+01 -8.385792087571E-01 5.098153193538E+01 -8.409488190124E+01 -1.093349433352E+01 -2.404733883665E+00 1.270214907542E+01 -4.193433494385E+01 -8.737082173001E+01 2.015315600638E+02
 1.009657068486E+00 -6.839574259280E-01 5.990155041336E-02 1.839920515255E+00 -2.233994120054E+00 -4.289102586436E-01 1.872026717891E-01 -8.530320684125E-01 -8.083710551385E-01 -4.738555615237E-02 7.749437630044E-02 2.032199089306E-01 6.668768856521E-02 -2.922232771527E-01 -4.575305186357E-01 -6.298460716743E-01 2.017006694635E+00 -9.462713548312E-01 -1.143622314868E+00 2.241568514238E-01 -4.555645040537E-01 -2.225809358970E-01 1.151144904775E-01 -5.523809715591E-01 2.299945922288E-01 4.106566997849E-01 8.947343354389E-01 1.684155495148E-01 4.158246533955E-01 2.484665737176E-01 1.412830375413E+01 -7.681968654609E+00 -3.368673168372E-01 -1.497615278076E+03 -5.233801416327E+02 2.366018051212E+01 -4.506397719741E-01 -5.178092731283E-01 3.728500864445E-01 -1.260646657785E+03 4.296383346224E+02 -4.468311445622E+01 -6.878269799760E+00 -2.614670308167E+01 4.756167767539E+00 3.736110530354E+01 1.290194437919E+00 6.720983078646E-01 3.059065974679E+03
 9.694002820757E-02 -4.993542765978E-02 1.297798555921E-01 2.154847012166E-01 -1.938864349286E-01 1.289770216079E-01 -3.570269769700E-02 -6.983581472587E-02 -1.997449629949E-01 -1.572464028304E-04 3.283336609672E-02 9.998222029290E-02 2.560469733814E-02 9.410437088894E-03 1.674913329978E-01 -1.971224485724E-02 2.618172198837E-01 -1.518058426707E-01 -1.793669924536E-01 -2.906772902153E-02 9.696383357484E-03 -9.841776088084E-02 5.508176296511E-02 -2.227719111623E-01 8.405087872048E-02 6.448030856452E-02 1.064846620130E-01 -4.547627883034E-02 5.589381943760E-02 -1.990991427830E-01 2.972163002578E+00 -2.379040742676E+00 3.445830171665E+00 -5.431875145217E+02 -8.607947513654E+02 5.115278771551E+01 -2.073861454688E-01 -2.920385808224E-01 -2.542850669482E-02 4.183174369858E+02 -7.351106716805E+02 4.348429633124E+01 -9.721483174676E+01 -8.765638587557E-01 -2.659415993015E+00 7.189806740247E+01 2.083180662222E-01 1.442382735673E+00 9.772169299733E+01 2.542379990997E+03
 -7.860917254776E-02 3.594683340850E-01 3.611876528181E-02 5.631132979472E-01 4.468209949130E-02 3.959690738699E+00 -1.205935030667E-01 2.277450198797E-01 -1.176243782450E+00 2.942728094101E-01 -7.323616409601E-03 -6.035183214319E-02 1.174265038442E-01 1.340062503286E-01 -9.667449748681E-01 -3.985114495555E-01 -6.280726823568E-01 -6.030292613477E-01 -1.540060068360E-01 -2.740730461098E-01 -9.339988189431E-02 -4.305583555672E-01 2.567413701753E-01 5.964507036574E-01 1.236655145011E-01 -1.265794358615E-01 1.103616160141E+00 -2.678342813139E-01 5.329521191635E-02 8.471174784532E-01 6.855583572315E-01 -4.764672428704E-01 -6.056425812510E+00 2.203926680479E+01 4.825162954004E+01 -7.407650743520E+01 -2.957160616741E-01 2.596917772922E-01 4.738334072097E+00 -4.554146457003E+01 4.121337029460E+01 -7.976441392319E+01 1.268200299338E+01 1.092463472408E+00 8.842743794771E+00 -2.285131345750E+00 1.647966149329E+00 7.248374157424E+00 2.401784705020E+01 -1.509436680116E+02 1.617277403661E+02
 4.082273255304E-01 -2.506157344494E-01 3.473359037170E-01 -1.224423594758E+03 4.456426915681E+02 -1.230313660232E+01 1.881457047863E-01 -3.213362672026E-01 2.142247047978E-02 8.276092767862E-02 -2.332288855420E-03 -2.571308845809E-02 4.607585991919E-02 -2.552411874638E-01 1.305100461212E-01 4.004829683190E+01 2.537505336630E-01 7.075130351661E-01 -4.254759968429E-01 6.094779718983E-03 1.799458696032E-02 -2.000095850699E+01 3.578469303903E+01 -7.390824632765E-01 5.886500272474E-02 2.596774082383E-01 -9.518529207873E-02 8.150904219889E-02 2.098345479503E-01 -1.409105824418E-01 4.552339096148E+00 -2.986573591137E+00 -1.043406377524E+00 4.867131122134E+00 4.971717565689E+00 -5.539478920083E-01 -5.284725376966E-01 -1.663481985693E-01 -6.402897772703E-01 -1.148746244331E+03 -3.962266952492E+02 -1.875276931930E+00 -1.919876815069E+01 -9.352579632387E+00 2.464653960081E+00 3.683402318100E+01 5.348096778395E-01 6.392411157084E-01 -2.316500711301E+01 -3.336884324325E+01 6.951567539173E-01 2.738886865225E+03
 3.871293266761E-02 -8.774785334992E-02 -1.816425868900E-01 4.550793575133E+02 -7.474721469522E+02 1.117755457025E+01 -3.532079158328E-02 -3.998842031151E-02 -3.010875072798E-01 1.956103688917E-02 8.190759172795E-02 8.230570767223E-02 4.088010048280E-02 5.472144725476E-02 -2.177188395071E-01 6.686167944947E+01 9.705019112902E-02 -1.129989752037E-01 -1.942366665061E-01 -1.910418652030E-02 -1.794530991886E-01 -3.345407656458E+01 5.956679609313E+01 -1.268860747803E+00 3.365398701827E-02 -4.868857618598E-02 3.346781091247E-01 -7.857842021185E-02 1.592600005051E-02 1.702433876050E-01 2.006006336563E+00 -1.172774923237E+00 8.249391818575E-01 2.409032590920E+00 1.814791969079E+00 4.609989218149E-01 5.661422826554E-01 -2.253234710683E-02 1.010480871311E+00 -3.922054464128E+02 -6.698776808592E+02 1.069096853599E+01 -9.389276930535E+00 -3.352505348016E+00 5.577269512612E-01 -6.623710737963E+01 -3.964315953869E-01 -1.158727412852E+00 2.999724102285E+01 5.763180833143E+01 -8.678187643361E-01 -6.573363576060E+00 2.803191785688E+03
 3.583148775189E-01 -3.575732379176E-01 4.516977741709E+00 -1.258652468170E+01 1.030526567022E+01 -8.522897514516E+01 -5.379778763033E-02 -1.801417796541E-01 -3.050590089436E+00 -1.719741870185E-01 -5.503574318337E-01 4.379334846133E+00 -2.282646290668E-02 -5.023390036041E-02 -2.881279265533E+00 -1.623254729643E+00 9.517583165457E-01 7.277596169267E+00 4.807789558399E-02 3.988297660931E-01 -3.348549914946E-01 8.286382114772E-01 -2.130815323925E-01 1.132267662076E+01 1.229847643060E-01 1.230656617623E-01 2.959436353070E+00 4.116477079657E-02 2.819953102427E-01 2.567843613125E+00 -1.541763713899E+00 -7.557605010862E-01 1.629464304597E+01 4.580984842159E-01 -5.967561618953E-01 1.476770079063E+00 1.449774735023E+00 -3.719596231903E-01 -8.624789168465E+00 -3.558600277744E+00 1.383279913135E+01 -8.046556556203E+01 3.636571432046E+00 8.954210138551E-01 -4.027913963765E+00 3.339149932078E+00 -9.683993402447E-01 1.318672424006E+00 -2.557097634797E+00 -3.717052494661E+00 1.205346080707E+01 1.474683935607E+01 -3.475132690140E+01 1.934412861817E+02