#BIOSYM hessian 1
@Type: Hessian Update
@Units
 distance: 	A
 energy: 	Kcal/Mol
#header
@natom 72

#label
C1      C2      C3      C4      C5      C6      C7      C8      C9      C10     C11     C12     C13     C14     C15     C16     C17     C18     C19     C20     C21     C22     C23     C24     C25     C26     C27     C28     C29     C30     C31     C32     C33     C34     C35     C36     C37     C38     C39     C40     C41     C42     C43     C44     C45     C46     C47     C48     H49     H50     H51     H52     H53     H54     H55     H56     H57     H58     H59     H60     H61     H62     H63     O64     H65     C66     O67     O68     H69     H70     O71     H72

#element
C  C  C  C  C  C  C  C  C  C  C  C  C  C  C  C  C  C  C  C  C  C  C  C  C  C  C  C  C  C  C  C  C  C  C  C  C  C  C  C  C  C  C  C  C  C  C  C  H  H  H  H  H  H  H  H  H  H  H  H  H  H  H  O  H  C  O  O  H  H  O  H 

#matrix
216
 2.788774634303E+03
 -2.551362918328E+01 2.810158678610E+03
 -1.969173937354E+01 -1.277396493222E+01 1.917537996451E+02
 3.778873722816E+01 6.483731674158E+01 -9.997183965271E-01 2.789353380255E+03
 2.670669955413E-02 -6.296360215318E-01 1.928354736822E-01 -3.119679985401E+01 2.725282121558E+03
 -1.240484946414E-01 2.592218091589E-02 8.420514244803E+00 -1.378373087599E+01 -2.427245032285E+01 1.883966279757E+02
 -1.940655016023E+01 3.434438917040E+01 -1.919674614754E-02 -1.025047237272E+00 5.290156098659E-01 4.368102927350E-01 2.803857045522E+03
 -3.243667687472E+01 5.884080252819E+01 -3.465047480027E-01 7.148978430039E-01 -2.331820215701E-01 -1.676813601397E-03 2.367056350342E+01 2.740544897731E+03
 3.140809851564E-02 -1.298172220110E-01 9.016477033908E+00 3.332404152289E-01 -1.448237430976E-01 -2.277605709177E-02 -1.186870573459E+01 -3.990981445115E+00 1.862511781880E+02
 3.706155952279E+01 -6.728708175712E+01 3.985184353546E-01 -2.018207532683E+01 3.569225622539E+01 -6.033724405708E-02 4.006117889103E+01 6.861586611908E+01 -6.056793860399E-01 2.800596610055E+03
 -2.909921193657E-01 6.445727152719E-01 -2.884814294698E-01 -3.174885872828E+01 5.728702123098E+01 -6.418462332251E-01 -3.805570290319E-01 -7.135557310049E-01 -1.105366861812E-01 -8.476512251844E+00 2.810785568091E+03
 -1.927005577432E-01 6.117882616900E-01 8.714263730194E+00 -7.459451754385E-01 -5.787371226717E-01 8.396142918350E+00 -3.913105343858E-02 -2.484473803810E-01 8.934679515161E+00 -1.044006465176E+01 -1.504516699174E+01 1.941820433342E+02
 -1.417604672643E-01 -2.038411079295E-02 -4.854092543525E-02 -3.331593241759E-01 1.366988890049E-01 -9.669375616546E-02 5.037516538884E+01 -8.420580004437E+01 4.328613215869E-01 -2.125849958074E+01 3.798706594061E+01 -1.317004863056E-01 2.610602955497E+03
 1.314410948999E-01 -2.565257245383E-01 2.387205666674E-01 2.054239611412E-02 -9.812264039635E-03 -2.827592825453E-01 -6.391168125000E-01 8.813269735795E-01 -1.340602800233E-01 -3.471022412944E+01 6.190143082417E+01 -4.805182849156E-01 -1.658305376608E+02 3.068155185623E+03
 -7.789707180385E-02 1.355077738044E-01 6.373062620262E-02 3.106023304439E-02 -6.873986547937E-02 4.942635785111E-02 4.982678527499E-02 5.157263688428E-01 1.276173034370E+01 2.449839528975E-01 -4.849569586339E-01 1.082151823971E+01 -5.782042345690E+00 -1.206731156296E+01 1.516934016316E+02
 -1.222944829474E+03 4.551427778428E+02 7.620721338337E+00 -4.557893118713E+02 -1.714159577596E+01 1.262576238210E+00 2.028354525584E-01 1.617696016623E-02 1.739419346687E-01 4.010404859276E-01 -1.111888708386E-01 4.586581580336E-01 1.240814361425E-01 7.520419180694E-02 1.080675798640E-01 2.813652917975E+03
 4.478159848459E+02 -7.486076242699E+02 4.445926485127E-01 -1.511129933396E+01 -1.393722661815E+03 1.120067745497E+01 -3.393009752690E-01 4.906188346613E-01 4.204776654113E-02 -9.201564075962E-02 1.458505597425E-01 -6.619499247005E-01 -9.794844225676E-02 2.121808515670E-01 -2.873766770115E-02 -2.827228451601E+00 2.742864030876E+03
 6.893736586336E+00 4.078949711685E-01 -8.274537701029E+01 2.957211735670E+00 1.216512158875E+01 -7.918753607918E+01 1.134110247567E-03 -2.794565204010E-03 4.440629125969E+00 -3.522440469246E-01 6.884980196350E-01 -8.472964871435E+00 -6.383314327812E-02 3.729664426051E-02 -1.173521359441E-01 -2.599483402739E+01 -2.112944022875E+01 1.905012401392E+02
 -1.204907235912E+03 -4.102166232898E+02 9.628524134494E+00 1.680858020058E+00 -7.923790465357E-01 -5.490774687266E-01 -1.233130668945E+03 4.437141309447E+02 5.435666988556E+00 -4.704154410840E+02 -7.197539042272E+00 1.606116777602E+00 1.900209592530E-01 -1.536268187943E-02 3.399948069349E-02 -2.006605416990E+01 -3.195433232358E+01 9.622246216539E-01 2.794330606347E+03
 -4.099315990119E+02 -6.924854076842E+02 6.354072491147E+00 -2.269143076075E-02 2.742504830497E-02 -1.915362940787E-01 4.524212379648E+02 -7.355510747877E+02 -4.811870989371E-01 -1.145035190593E+01 -1.459312911178E+03 6.968797173877E+00 1.694767781293E-02 -3.245095849473E-02 -2.743733971911E-01 3.513434248804E+01 5.849353019561E+01 -5.834965939590E-01 -2.561018773898E+01 2.768086967055E+03
 1.064856767453E+01 5.175319231373E+00 -8.080611699917E+01 1.210303551850E-01 6.387746366934E-02 -8.816982124465E+00 4.577326759690E+00 7.057811103598E-02 -8.258442651692E+01 2.188027895584E+00 6.718258610543E+00 -8.237928687925E+01 1.289703786510E-01 4.418796876330E-01 -1.047274403591E+01 9.240737091574E-02 1.916792960476E-01 8.359482754004E+00 -1.717304587806E+01 -1.229622349880E+01 1.912454161638E+02
 5.322109519866E-01 3.537500759573E-01 3.304939863468E-01 -1.199252702606E+03 -4.179768897777E+02 9.079404523742E+00 4.883040772365E-01 -1.660678858655E-02 -1.258871594714E-02 -1.193005007187E+03 4.464678422058E+02 2.492284217130E+00 8.479958329064E-02 7.958489227265E-02 -1.851562516762E-02 3.579950597593E+01 -4.358188746906E-02 -4.860550302000E-01 4.028267917993E+01 -5.629103570546E-01 8.723822299841E-02 2.737489079363E+03
 1.594363488490E-01 1.950932888586E-02 1.443769532112E-01 -4.187495853787E+02 -6.961488682833E+02 7.579625523943E+00 1.717600179853E-01 -2.797078951056E-01 1.640209120792E-02 4.480757700584E+02 -7.441008589781E+02 3.482529922882E+00 1.045078117633E-01 -1.142566850539E-01 7.890356262477E-02 -6.468285723512E+01 1.461669564567E+00 2.122768245674E-01 6.638724038145E+01 -6.251491217965E-01 -3.890993613296E-01 -8.162097649791E+00 2.750297150550E+03
 -2.023185473134E-01 -1.189517024126E-01 -8.654341979183E+00 1.168168532143E+01 6.122343188718E+00 -8.012036318473E+01 7.451000836543E-02 3.135720755436E-01 5.369119806608E+00 2.096992753483E+00 3.099968101197E+00 -8.233459252335E+01 2.339101178883E-01 2.529850820372E-01 5.206558800039E+00 -3.722721350240E-02 4.299362783077E-01 8.242566772210E+00 -4.666501409961E-01 -3.360333678543E-01 9.231190019078E+00 -1.302765625591E+01 -2.309651324070E+01 1.880531589444E+02
 7.074222179901E-02 9.592633403554E-02 1.393434512359E-01 3.223924683274E-01 -1.411064783085E-01 -1.536183982719E-01 -1.245327268371E+03 -4.412370357605E+02 4.842149130734E+00 9.112504495840E-02 2.046111342645E-02 -1.579305820141E-01 -5.718287403096E+02 -1.245288966474E+01 1.155718323022E+00 -9.827475676406E-02 3.739539736631E-02 1.046031725099E-01 -2.144279387648E+01 -3.647886324400E+01 3.854463089004E-01 -1.611328763236E-01 -6.285994446302E-02 -4.346086549414E-02 2.611457194937E+03
 -6.572180553708E-02 2.982656158713E-01 -1.117047547984E-01 2.304407055375E-01 -1.574848522345E-01 2.408514274614E-01 -4.565629613241E+02 -7.645744573567E+02 3.171196355054E+00 1.089945150043E-01 7.857753914403E-03 1.890772326671E-01 -2.240950368032E+01 -1.829383629130E+03 7.273674339124E+00 -1.364447092647E-01 -1.347123640977E-01 5.773016513272E-02 3.550557357086E+01 6.069077738459E+01 -6.803694539372E-01 -1.846581617907E-01 8.010459737030E-02 -3.640897805312E-01 1.883478707392E+02 3.040707084637E+03
 -8.012139155482E-02 -8.714265988856E-02 4.575302888901E+00 -4.851663422342E-02 -2.203496988140E-02 -1.057805712267E-02 5.417641001735E+00 2.986158443545E+00 -7.693299417025E+01 -1.572216758994E-01 1.523874767924E-01 -1.027315284307E+01 1.287971130950E+00 7.105285507566E+00 -7.134038598115E+01 -4.539502994767E-02 1.216894325411E-01 8.610139549412E-02 5.920383107237E-02 1.191487639310E-01 9.886967636880E+00 -1.371510486377E-01 4.204559036875E-02 -3.203138917305E-01 -7.135302044563E+00 -1.161091689382E+01 1.526191291230E+02
 1.352476685530E-01 8.026734579413E-02 -2.226416986402E-01 3.006752563028E-01 -1.367708644069E-01 4.469280096491E-01 1.576337155826E-01 -1.501627475562E-01 -3.885224527765E-02 -1.254013262460E+03 -4.284551766157E+02 7.230375691678E+00 -1.264762684499E+03 4.602525402932E+02 1.632205315453E+00 -1.739749659941E-01 3.104417395491E-02 4.376376196385E-02 3.854335917342E+01 -3.540752250677E-01 -5.987478355223E-01 -2.053730045815E+01 -3.311009628475E+01 -1.426610171661E-02 5.213487978160E+01 -5.369625274364E-01 1.604490635841E-01 2.892126084837E+03
 -3.897917217294E-01 1.650237035208E-01 -2.582356904463E-01 -8.277041760564E-01 4.491949243368E-01 3.204991171959E-02 -1.686240677377E-01 2.481457650610E-01 1.309517320521E-01 -4.293620758208E+02 -7.256342238654E+02 5.389989077017E+00 4.524967766794E+02 -7.887780581902E+02 2.214863095468E+00 9.001742390544E-02 -4.546618422270E-01 -2.402922104420E-01 -6.900685146764E+01 6.404475927788E-01 3.467313261733E-01 3.671028373011E+01 5.971526455081E+01 -1.614119421666E-01 8.508220350646E+01 -1.197867244623E+00 -1.019171753077E-01 -2.755748034992E+01 2.941584395026E+03
 1.571366816943E-01 1.252970719087E-02 4.462171584392E+00 -1.476066147042E-01 3.664798464089E-02 4.484969877597E+00 -2.957158397263E-01 -2.513524395308E-01 -1.058827332168E+01 7.349686732827E+00 5.144612083710E+00 -8.615358549943E+01 1.474088774925E+00 2.357399537485E+00 -7.786973439456E+01 2.439268893640E-02 -6.935543313110E-02 3.651916235750E-02 1.120039756382E-01 2.632586556692E-01 9.350465677191E+00 -2.304056158924E-01 -3.516462095840E-02 9.311153168674E+00 -2.657675879728E-01 2.313181614462E-03 1.090951997057E+01 -9.667034054537E+00 -1.638072306309E+01 1.886074762664E+02
 -6.159771950853E+00 -5.117552368593E+00 1.003326579593E+00 -3.031179472475E+01 1.555269044518E+01 4.812424358225E-03 -5.867552285264E+00 1.564133482618E+00 1.413094106456E+00 -3.293935885511E+00 8.469742250853E-01 -1.731457180488E+00 -1.195136721035E+00 -1.330413018367E+00 6.132908642854E-01 4.352061937574E+00 -9.852967823495E+00 -1.692861280991E+00 8.403846574844E+00 6.359618707911E-01 1.998463842559E-01 1.121019409906E+01 4.565147914342E+00 2.260441645684E+00 1.858752509029E+00 2.707659600350E+00 -5.184485534316E-01 8.925770551461E-01 -2.630260614111E+00 -8.915093294376E-01 2.700021062572E+03
 2.554726293797E+00 2.083195317861E+00 -1.955556552315E-01 1.355233354724E+01 -7.892059081404E+00 4.270767182329E-02 2.765669280379E+00 -6.954562792905E-01 1.099357674255E-01 1.352130242985E+00 -7.478461304609E-01 -5.063702677056E-01 2.283780028971E-01 6.763420595165E-01 -1.644205101747E-02 -1.095326624717E+00 6.047631927098E+00 8.127158031504E-02 -3.494520241913E+00 -7.126149785825E-04 -1.880848671123E-02 -4.585460021523E+00 -2.138728606594E+00 1.050026169853E+00 -8.230456917016E-01 -1.336623018269E+00 -6.067426949135E-02 -3.172702579139E-02 9.164959268721E-01 4.221089355837E-01 4.731816008583E+01 2.638745283522E+03
 -1.156175754105E-01 -4.185633460994E-01 5.764037824250E-01 1.113050246194E+00 7.522013985436E-01 1.337388267369E-01 4.069572994762E-01 -7.113916986781E-01 2.079060077695E+00 -2.199874921908E-01 -7.637254094342E-02 -2.835630990427E+00 -2.305598410322E-01 -2.709566810374E-01 1.566325499665E+00 2.252559412128E+00 8.190670941820E-01 3.488161635698E+00 2.253745999757E-01 3.756193928510E-01 6.002400908389E-01 3.588937907752E-02 -6.430973963257E-01 3.734790297728E+00 -2.683170900633E-01 2.157386382416E-01 -9.070504273734E-01 7.129014781498E-02 -5.368865281996E-03 -2.756070765938E-01 -3.192770827861E+01 -3.329715844620E+01 2.023439943173E+02
 -3.096069894548E+00 -6.819258666160E-01 2.091950083495E-01 -1.327940866661E+01 7.459435651732E+00 2.152491441430E-01 -2.343862229567E+00 2.223053719945E+00 2.899308834794E-01 -3.824661960689E-01 6.045902358032E-01 -2.878147454268E-01 -6.005291065654E-01 3.943931252012E-01 1.457325751330E-01 6.110613678625E-01 -6.405643875016E+00 -5.857096707720E-02 3.460591097822E+00 -5.854400665496E-01 1.666927704420E-01 4.245205626529E+00 2.621129766894E+00 2.054232731623E-01 6.126898675570E-01 1.871935706958E-01 -1.004376294147E-01 2.766075248404E-01 -2.396294580532E+00 -5.089064805544E-01 -2.849104893273E+01 1.173398333622E+02 1.129315097091E+00 2.683666631405E+03
 -4.274318480429E+00 -2.152980082444E+00 5.267945718040E-01 -2.286715222573E+01 1.328802685975E+01 1.072834660558E-01 -4.245056240194E+00 2.475446482963E+00 8.731386459574E-01 -1.208578919256E+00 1.317795717951E+00 -5.976566993012E-01 -5.402180666219E-01 -1.814184584006E-01 6.539169929233E-01 8.741628786853E-01 -1.054593191198E+01 -4.414851242349E-01 5.529878581693E+00 -5.594990746384E-01 2.092680717620E-01 7.411792899239E+00 3.940722345326E+00 6.110620978115E-01 1.150101321782E+00 1.200745203493E+00 -4.609752947739E-01 -2.385421031882E-01 -2.861666170337E+00 -9.340608024857E-01 -1.370736363730E+02 6.905011417552E+01 5.083408103049E+00 1.905441597980E+02 2.812434838645E+03
 -6.228921478989E-02 -2.354762871356E-01 -6.155328733371E-01 -1.128461211610E-01 -1.289869537893E-01 2.047708839963E-01 1.624863564524E-02 2.381039455300E-02 -1.831015788258E+00 2.579910323805E-02 -3.037148680724E-01 2.854899893608E+00 1.015963555648E-02 -1.718074534659E-01 -1.343445095304E+00 -5.569563131206E-01 -2.752726540711E-01 1.185102870015E+00 -9.139701102271E-02 -5.152270559557E-02 -5.028249377993E-01 2.561154973995E-01 -1.964185293790E-01 -3.779741797286E+00 7.147019679626E-02 2.367408570191E-01 6.976453909328E-01 4.318934891063E-01 2.939495402873E-01 4.183631227187E-02 -2.765967724254E+00 -3.976756353338E+00 4.681794174014E-01 -4.406966486815E+01 -5.335656591732E+01 1.575336619805E+02
 -2.086432442241E+01 -3.419276638135E+01 1.660618708683E-01 3.696490600543E+01 9.865152942759E-02 3.810723833983E-01 -2.190576244120E-01 9.158139544262E-02 -1.080150575454E-01 -2.704547605889E-01 -1.224892086191E-01 -3.237248507389E-01 -1.673245016959E-01 8.085003216665E-03 -1.261958410841E-01 -1.251455416465E+03 -4.323844427359E+02 1.591745951927E+01 5.064725497660E-01 8.094241519452E-02 -2.840287373981E-01 4.667311174232E-01 2.739445398555E-01 6.495927363343E-01 6.666607530615E-02 3.353522057032E-02 3.371368620725E-03 2.876015486181E-01 -1.627409149956E-01 5.337511747506E-02 -2.057785771253E+01 3.528466640652E+01 -2.248181634319E+00 -6.437072662799E-01 1.087655390591E+00 -1.453380459346E-01 2.769778859261E+03
 3.652781898524E+01 6.046861659572E+01 -6.381141917475E-01 -6.667431172054E+01 6.798273630871E-01 1.754171834156E+00 -7.122080132388E-02 -1.787056109654E-01 2.807295523407E-01 -7.350524493523E-02 -1.508930324924E-01 -2.238786180302E-01 -1.820955547895E-02 -1.523396821476E-01 1.102419605109E-01 -4.387938808374E+02 -7.166860718614E+02 7.958151471705E+00 4.645314202834E-02 1.173675857018E-01 9.608800854897E-02 2.172483329132E-01 -9.993248476683E-03 8.255648883814E-01 7.222137906368E-02 1.415637639640E-01 -1.722928879040E-01 4.540215805096E-02 1.367230714379E-01 -5.232291955041E-02 -3.228201743196E+01 5.631848109369E+01 -2.129141829618E+00 2.092494852401E+00 2.987127624685E+00 2.953367118151E-01 2.762711745098E+01 2.776140419428E+03
 -4.069673506995E-01 -1.476343913026E+00 9.665672046451E+00 -3.160590744598E-01 4.823571156566E-01 8.984650245833E+00 -1.777904869946E-01 -5.577984623735E-01 -1.308034597417E-01 -8.108058127576E-01 4.704206239967E-01 1.132006415514E-01 -1.959101372448E-01 -1.432416653028E-01 -2.091999483773E-02 1.667768016117E+01 1.114680385761E+01 -8.264486277606E+01 1.014199005355E+00 3.967628879899E-01 4.574446011690E+00 4.381997311575E-02 -5.684544227448E-01 4.201358925791E+00 1.776558110213E-03 2.768777620651E-01 8.614045602050E-02 2.542626931129E-01 -1.386306187666E-01 4.277943985786E-02 -3.438947386146E-01 -2.480736115230E+00 8.039647341422E+00 2.031416621605E-01 1.864605936579E-01 -1.447138994633E-01 -2.837138366734E+01 -2.170821822478E+01 1.900866824454E+02
 -4.661900462936E+00 -1.619565891337E+00 6.552028598565E-01 -3.764203929919E+01 -2.150322378006E+01 -7.796764780098E-01 -3.456093948320E+00 2.663663194337E+00 9.258673300836E-01 -1.319603071497E+00 6.052316462456E-01 -1.733734702078E+00 -1.121749196301E+00 3.028600699279E-01 8.732451602867E-02 2.013051067800E+00 -7.999054522852E+00 -5.610832103238E-01 5.352275573967E+00 -9.744249694856E-02 1.717754337607E-01 6.699852703789E+00 3.753476734047E+00 2.232740763042E+00 9.031611582968E-01 5.480466295080E-01 -1.615581419030E-01 9.912821383940E-01 -3.030990751964E+00 -2.227108227403E-01 -6.104704659572E+01 -2.128053745391E+01 9.899989458445E+00 -7.056461868560E+01 -4.192625872017E+01 3.723917086511E+00 3.539442220934E+01 6.591593801282E+01 -1.488872089921E+00 2.737972896482E+03
 -7.517546181185E-02 4.980918913980E-01 -2.101567496995E-02 3.426175827020E+01 5.685929788390E+01 -1.118774992349E+00 -1.348677836082E-01 3.966840471820E-01 -1.815456217830E-01 3.252046363350E-01 2.718686423648E-01 3.005751037790E-01 1.981994227814E-01 2.990022904774E-01 1.672597499998E-03 -4.110274209419E-01 -5.841335959374E-01 3.383263472397E-01 -2.182557439933E-01 -4.740243889458E-01 -6.823398000994E-02 -6.359192186268E-01 1.435734702424E-01 -5.292755880067E-01 2.142408890688E-02 -3.561549395992E-01 5.480627852884E-03 -4.394488484196E-01 -2.223543762707E-01 -4.602531591253E-02 -3.734523801002E-01 5.221116169202E+00 -3.579832791207E-02 -4.420182245916E+01 6.921787057206E+01 -3.072729764532E-01 4.305217433441E-01 1.536543991115E-01 1.222438225737E+00 -8.219638861163E+01 2.751554725597E+03
 1.622172907175E+00 -2.484922913853E-01 -6.872562361100E-02 1.346369767488E+00 -3.050984766795E+00 8.086452664182E+00 6.677965037902E-01 -8.738279535270E-01 -2.416224037249E-01 -2.535342931279E-01 -1.268764430481E+00 3.485921032143E-01 -2.308000053626E-01 -9.532979188998E-01 -1.779956374697E-01 -2.547332398415E+00 -4.480215147323E-01 -8.553488557974E+00 -5.675358616760E-01 8.239878729369E-01 -9.916377169215E-02 1.633810521726E+00 9.868562159597E-01 3.923739916832E+00 -3.267194446513E-01 9.629904788847E-01 8.322956506187E-02 8.067058089361E-01 1.179216123916E+00 1.889887050888E-01 -3.682558704003E-01 1.757376529448E+00 8.957645027901E+00 3.055022283615E-01 -2.774061235311E+00 1.462650604907E+01 3.982272903819E-01 1.359560726079E+00 8.232711486160E+00 -2.340190489960E+01 -3.490622343860E+01 1.875631501686E+02
 8.532719973777E+00 6.289502873446E+00 -5.644125430675E-01 4.409433371931E+01 -2.544113581505E+01 1.973227518831E-02 7.924881413401E+00 -4.344764218122E+00 -3.857413745371E-01 3.661433798957E+00 -1.652149995091E+00 -1.491768428276E-01 1.540208415477E+00 5.932533679647E-01 -1.655927288676E-01 -4.321080778951E+00 1.626431309107E+01 -5.155323315723E-02 -1.180219084412E+01 4.575086247441E-01 -9.098491942526E-02 -1.495322196217E+01 -8.328914136391E+00 9.620094656728E-01 -1.912061384629E+00 -2.909170201650E+00 2.736594929055E-01 -1.832731875192E+00 5.246729462444E+00 9.584005147243E-01 -1.058604707735E+03 3.400229465740E+02 1.707400971989E+01 -3.638046930025E+02 1.894636156634E+02 -4.294638274522E-01 1.369000945889E+00 -2.202405280214E+00 -1.157863787672E-01 1.511388555312E+02 3.553522854077E+00 4.936645958107E-01 2.075190449614E+03
 1.113675823277E+00 1.296666107127E-01 3.771913514169E-01 1.034593624980E+01 -9.125459403881E+00 -2.050771062349E-01 1.825962085577E+00 -1.990136961313E+00 3.418975584961E-02 -4.388497737268E-01 -1.056078232742E+00 -8.254840296066E-01 -1.938753623812E-01 -5.888941819685E-02 -2.965107684641E-01 2.490863591426E+00 7.401450403526E+00 -6.908165491146E-01 -2.197010859354E+00 1.389605322153E+00 -1.593091607122E-01 -2.525578416513E+00 -3.425721186882E+00 1.638473715755E+00 -1.198091185490E-01 -6.463017732828E-01 2.576325733694E-01 2.462291225945E-01 1.516360282635E+00 5.068018308606E-01 5.853188817950E+02 -7.947475963769E+02 2.728668578881E+00 -1.729850220271E+01 -1.551157530795E+03 1.707178136884E+01 -3.076017455480E+00 -6.591928628111E+00 9.090468248759E-01 4.061676427543E+01 6.634506371683E+00 -8.277710906391E-01 -3.547455255534E+02 2.679333923101E+03
 1.392040830265E+00 -2.096769702376E+00 3.818189827708E-03 3.983773085081E+00 -2.089779159045E+00 -5.765400215006E-01 7.226031040052E-02 -2.635331116008E+00 -6.046906332008E-01 -1.647311285444E+00 -3.438711800073E-01 3.357890300901E-01 4.152751254763E-01 -1.631339173575E+00 -7.708678548708E-01 6.026303485625E-01 4.821018696774E+00 -1.575416874839E-01 -3.005602494950E-01 1.105824644127E+00 -2.318844276967E-01 -9.697463693401E-01 -1.101247886562E-01 -5.842338927225E-01 5.238805287458E-02 1.632509055215E+00 5.023837100846E-01 5.240280614160E-01 2.837910637777E+00 7.051935814703E-01 3.146190464741E+01 6.312737676291E-01 -8.477851831879E+01 2.172250725634E+01 5.161414288288E+01 -6.910872052637E+01 -6.174289969072E-02 -1.687155088796E+00 4.824223677380E+00 1.718477758798E+01 2.192573732529E+00 -1.093817848523E+01 -5.988529291685E+01 -4.534624149945E+01 1.847010685854E+02
 2.068493755444E+00 1.335941006969E+00 -3.639972851104E-01 8.698698860316E+00 -4.250158585834E+00 1.234311671219E+00 1.654158082339E+00 -6.971648068828E-01 -5.512565870520E-01 9.157483049693E-01 -2.133926399076E-02 1.121686792210E+00 5.405228969361E-01 2.932445572606E-01 4.110151688677E-03 -2.091429777625E+01 3.780923346306E+01 9.448282806496E-01 -2.515029344226E+00 -2.577744358097E-01 1.716753764419E-02 -3.511978465680E+00 -1.491848903331E+00 -1.266827393491E+00 -5.409389864068E-01 -6.734769894074E-01 1.307858690199E-01 -5.995946044622E-01 8.895871212636E-01 1.509196352696E-01 -1.198302305002E+03 -4.476572583968E+02 2.037476013176E+01 1.853927317195E+01 3.234687753850E+01 -2.074826670835E+00 -1.162040327898E+03 4.239232516934E+02 9.050178209805E+00 -4.352122520239E+02 -2.386084615391E+01 3.371102952720E+00 -7.980092659161E+01 -4.067544969432E+01 -6.515562136141E+00 2.747298450002E+03
 4.311770628576E-01 3.732666317411E-01 -4.340307889463E-02 1.838773014877E+00 -1.329218606970E+00 -1.442633063525E+00 5.083420595462E-01 -2.355367495018E-01 -8.562381334244E-02 1.353658104507E-01 4.179023016365E-02 9.053066508264E-02 4.115120610083E-02 1.003823599763E-01 -1.950237345954E-02 -3.215958837029E+01 5.891091348934E+01 6.171213283874E-01 -5.710399299196E-01 7.249535383188E-02 1.075400688299E-01 -9.953949726906E-01 -7.094677213002E-01 -3.998137376653E-01 -1.649188142719E-01 -2.158278871759E-01 1.153274114967E-01 -1.797822538847E-02 2.117892597781E-01 1.499014643326E-01 -4.236135182323E+02 -7.320518926542E+02 1.386169624571E+01 4.515949135406E+00 1.443646068827E+01 -3.431236226247E+00 4.231208990364E+02 -7.105932871683E+02 2.618414468522E+00 -2.372467903806E-01 -1.470393674694E+03 1.686230899142E+01 4.939591467222E+00 4.901620753219E+01 2.533966974407E+00 1.864667757723E+01 2.779892793460E+03
 6.691416876984E-02 -1.026619052354E-01 4.486974795572E+00 -1.818138799051E+00 1.814201013693E+00 -8.866417642983E+00 -4.261632253741E-02 -2.407523601222E-01 -3.089719586946E-01 -3.026147994933E-01 1.142488631936E-01 5.476610125351E-01 -1.861481388071E-01 -1.504159101085E-01 -3.923649556901E-01 1.811467681323E+00 -2.253996572969E-01 8.667233910148E+00 5.426767886718E-01 1.388895772902E-01 -1.770949824340E-01 5.396049002561E-01 -7.691430230781E-01 -6.889012260275E-01 3.804150320942E-02 3.016798152100E-01 7.433622222097E-02 3.068991888788E-01 -1.546224964568E-01 -4.787151864539E-02 2.051983956362E+01 9.304645937592E+00 -8.850488216650E+01 2.221842440784E+00 -2.062777870502E+00 -7.834082202791E+00 1.016098696699E+01 2.014352435679E+00 -7.931060712308E+01 2.724782180559E+00 2.201199521568E+01 -8.152549324502E+01 4.723535821130E-01 5.637880278419E+00 1.235217460394E+01 -3.673562766119E+01 -3.258780131541E+01 1.932479295183E+02
 5.093181399542E+00 1.201985578691E+00 -5.699158294099E-01 1.962326667121E+01 -1.036221608708E+01 1.562028846228E-01 3.585564723189E+00 -3.437890272425E+00 -7.818897280117E-01 9.597764203683E-01 -9.464630967887E-01 1.462088265313E+00 1.084320955241E+00 -9.219811403569E-01 -2.750386340141E-02 -2.039033685371E+00 8.588879831380E+00 6.660321702123E-01 -5.476662173015E+00 5.916261588012E-01 -1.399916239562E-01 -6.204564952689E+00 -3.949342160406E+00 -2.024885646325E+00 -8.519872184191E-01 3.980899295713E-02 1.525381942610E-01 -7.840786990925E-01 3.801349968929E+00 2.249463813951E-01 1.022067863314E+02 -5.272449364978E+01 -7.104887024112E+00 -1.403484506930E+03 -3.952793851490E+02 2.708776504800E+01 1.932842327639E+00 -1.766059385355E+00 2.815517391050E-01 -1.260926420990E+03 4.743476581334E+02 5.279155340773E+00 -1.196171383418E+02 -5.822803108244E+01 -2.036561692732E+01 1.172658033392E+01 -1.133014797507E+01 -7.863224817273E-01 3.000150994563E+03
 9.321563344763E-02 -5.067103205813E-02 4.148527334809E-02 1.424232964517E+00 -1.289437606792E+00 2.423691802713E-01 3.075696044546E-01 -1.592457528381E-01 1.278032684528E-01 -6.213771300529E-02 -2.956895982832E-01 -3.741368305387E-01 -1.428330426682E-01 3.948865856529E-02 1.021436412719E-02 4.608299028178E-01 1.266411316260E+00 -2.791990279268E-01 -1.263576403669E-01 1.663906229010E-01 2.032086889809E-02 -1.904947802075E-01 -1.887661216540E-01 6.430845880051E-01 -6.540989511358E-02 -9.643854018191E-02 -2.327446362314E-02 2.934367575356E-01 4.333424225860E-02 5.593187259574E-02 9.508772810938E+00 -8.017634753422E+00 2.004115805134E+00 -4.818889887938E+02 -8.208582454018E+02 2.193374210651E+01 -9.048991100817E-01 -5.290547830825E-01 -1.489987248041E-01 4.664746119912E+02 -7.544004373827E+02 6.980232715995E+00 -1.033213874265E+02 -8.229445428895E+00 -5.271086177974E+00 7.018727541508E+01 -2.845112803234E+00 -3.732883628301E+00 1.063103159505E+01 2.538376257099E+03
 -2.928333440218E-01 4.759523343079E-01 9.056460787614E-03 -2.247345131633E-01 5.284284878240E-01 5.011575968556E+00 -6.978829056415E-02 3.649463156570E-01 1.850030013570E-01 2.038828535686E-01 1.222626430922E-01 -1.267026108508E-01 -3.577135008842E-02 1.940988903466E-01 2.846734951898E-01 -1.026953793149E-01 -9.024410278525E-01 1.793185782859E-02 1.004213656816E-01 -2.620899597326E-01 1.270813018182E-01 -1.183520690699E-02 7.457926368128E-02 7.550605952744E-02 3.454977431732E-02 -2.211656122961E-01 -9.785494517158E-02 -9.364033082770E-02 -3.824402231273E-01 -2.834782990812E-01 -1.611031314263E+00 1.027106870614E+00 -8.825324026429E+00 2.819986370629E+01 1.919178257067E+01 -7.292720944223E+01 -5.930385461706E-01 6.262705395422E-01 4.765076983380E+00 4.576517946917E+00 3.955229058800E+00 -7.836013640780E+01 5.372307683005E+00 9.582389032295E-01 1.154734479410E+01 -2.432798425410E-01 -7.294403495667E-02 9.052608248346E+00 -3.768285422044E+01 -4.112490551512E+01 1.547051191354E+02
 2.971027147632E+00 7.683144836704E-01 -3.230678683012E-01 -1.245031542933E+03 4.515959478763E+02 3.864953180694E+00 1.967023716280E+00 -1.879188219685E+00 -6.173520070872E-01 4.047380586079E-01 -4.955724415849E-01 1.008158921117E+00 6.272865151195E-01 -4.155751329634E-01 -9.367966173434E-02 3.888246861307E+01 3.717500122257E+00 3.155662819042E-01 -3.053493776205E+00 3.297732425441E-01 -2.524884681737E-01 -2.347505080599E+01 3.396387679456E+01 -2.562026779384E+00 -4.873493995068E-01 -6.049298272441E-02 7.207169650070E-02 -4.414642868520E-01 1.971275762633E+00 7.740317341521E-02 5.905918384372E+01 -2.828872158384E+01 -4.555354949033E+00 2.931158402528E+01 5.000289227066E+01 1.011089906787E-01 1.135929827547E+00 -8.507186752217E-01 9.671663964096E-01 -1.087012978018E+03 -3.684995783035E+02 1.141682790730E+01 -9.250710041943E+01 -2.853126807118E+01 -1.275513292918E+01 1.945914957063E+01 -5.967716378851E+00 7.514940122427E-01 -6.055325169297E+01 -3.666652875679E+01 2.196074314910E+00 2.732670576326E+03
 1.637513191260E+00 2.054086931285E-01 -1.486172528755E-01 4.745761103797E+02 -7.509250901894E+02 6.478185524532E+00 1.087422342253E+00 -1.173427398442E+00 -3.791291623170E-02 1.666017872443E-01 -5.745676361897E-01 3.470345047615E-01 1.809641147969E-01 -5.642081993175E-01 8.726991068340E-02 6.596979887258E+01 7.504792160001E-01 -8.714928616899E-01 -1.455396226342E+00 4.049213785632E-01 5.691304649080E-02 -3.420012056097E+01 5.907519831613E+01 -1.516116585047E-01 -2.541913388044E-01 3.771080927456E-01 3.764687707035E-02 1.110267330717E-01 1.229364686056E+00 6.601194702293E-02 2.435408551148E+01 -1.221408148410E+01 -2.143568441942E+00 1.375833100356E+01 2.331685118180E+01 1.724799880667E-01 -8.179017057945E-01 -5.956729108586E-01 -7.913873585822E-01 -3.545430094985E+02 -6.618046435140E+02 1.369353638680E+01 -4.111484030210E+01 -1.765565372901E+01 -6.771810801829E+00 -7.064222400920E+01 -1.246066528677E+00 -6.143937158815E-01 1.371034477574E+01 5.701078393587E+01 -4.988911881967E-02 -4.163383654091E+01 2.843730607987E+03
 -4.171883109626E-01 1.363556632351E+00 4.650493301299E+00 2.931262751849E+00 5.692811366389E+00 -8.302268551011E+01 2.139925227759E-01 5.581073442529E-01 1.554329058245E-01 1.205178388691E+00 3.343102534698E-01 4.347019739847E+00 2.235841788929E-01 1.796916738037E-01 7.453372026105E-02 7.314326123593E-01 -1.009704275237E+00 8.429903695163E+00 -7.081905209408E-01 -1.061039333591E+00 4.554446479551E-02 -8.098303121180E-01 -7.258755848862E-02 9.965363139851E+00 -6.898347343273E-02 -3.256143599140E-01 -6.587408620139E-02 -3.420979541007E-01 2.013263859293E-01 1.107059346143E-04 4.138507580596E+00 1.131471104980E+00 5.058429710130E+00 -1.302772554830E+00 1.815808751134E+00 4.704835201522E+00 -1.650438848667E+00 -9.738679322605E-01 -8.804515339242E+00 1.715382208821E+01 8.044116252167E+00 -8.267149591594E+01 8.451376436268E-01 -1.147061885290E+00 4.302300843359E-01 -1.652261855317E+00 1.838612014241E+00 7.804400177211E+00 5.046422997699E-01 8.879926902958E-01 9.956026267749E+00 -2.180688081108E+01 -4.071565173076E+01 1.904669021764E+02