#BIOSYM hessian 1
@Type: Hessian Update
@Units
 distance: 	A
 energy: 	Kcal/Mol
#header
@natom 70

#label
C1      C2      C3      C4      C5      C6      C7      C8      C9      C10     C11     C12     C13     C14     C15     C16     C17     C18     C19     C20     C21     C22     C23     C24     C25     C26     C27     C28     C29     C30     C31     C32     C33     C34     C35     C36     C37     C38     C39     C40     C41     C42     C43     C44     C45     C46     C47     C48     H49     H50     H51     H52     H53     H54     H55     H56     H57     H58     H59     H60     H61     H62     H63     H64     O65     H66     C67     O68     O69     H70

#element
C  C  C  C  C  C  C  C  C  C  C  C  C  C  C  C  C  C  C  C  C  C  C  C  C  C  C  C  C  C  C  C  C  C  C  C  C  C  C  C  C  C  C  C  C  C  C  C  H  H  H  H  H  H  H  H  H  H  H  H  H  H  H  H  O  H  C  O  O  H 

#matrix
210
 2.800043726125E+03
 -1.554855571078E+01 2.830282150963E+03
 -2.309537619221E+00 -1.316540935143E+01 1.941990109892E+02
 3.888730856031E+01 6.916896301268E+01 -1.125958899042E+00 2.789899021704E+03
 -6.593676888925E-02 -1.736427892866E+00 2.961579158727E-01 -2.193594106586E+01 2.755437950466E+03
 5.446385133610E-03 2.426696243220E-01 8.525517649925E+00 -2.761977607284E+00 -1.581610866786E+01 1.902917446677E+02
 -1.931580303355E+01 3.573352930909E+01 -5.518685137803E-01 -1.136253913931E+00 4.135600481598E-01 3.218393759361E-01 2.806448943068E+03
 -3.334170950468E+01 5.951976868188E+01 -3.675500638563E-01 -8.954329991540E-02 -5.179611045990E-02 -2.599644075041E-01 2.649397887519E+01 2.757537872903E+03
 -7.360680078393E-01 3.681711456088E-01 9.000573547437E+00 -2.745655773435E-01 -3.508890981510E-01 1.217347938804E-01 -2.058143794310E+00 -1.220909059628E+01 1.875886385723E+02
 3.641633750925E+01 -6.432171705290E+01 1.056513290118E+00 -2.195557669541E+01 3.641873142026E+01 -6.998296542622E-01 3.906089664512E+01 6.919968118899E+01 -5.469302360837E-01 2.808382831440E+03
 1.231224095249E+00 -2.868537136343E+00 -1.294020717530E+00 -2.998898671486E+01 5.663208046080E+01 -2.914077521099E-02 8.961816220686E-01 -4.386019185524E-01 -4.386293376399E-01 -2.634690860464E+00 2.825390168698E+03
 3.781036821146E-01 5.191660814768E-01 8.826648721447E+00 -9.807152342708E-01 -1.525394177322E-01 8.734400583774E+00 3.612126379558E-01 3.325669014379E-01 9.676730536046E+00 -1.904242599468E+00 -1.469098672223E+01 1.959233456974E+02
 1.903261865780E+00 -4.190437913199E+00 -1.888721082350E-01 2.266181880165E+00 -1.445551241469E+00 -2.701147459616E-01 5.203983074694E+01 -8.480439559067E+01 2.340428286040E-02 -1.733517285091E+01 3.475439163503E+01 1.676354978901E-01 2.600258147849E+03
 2.458582354450E-01 -7.045813898785E-01 3.951815530037E-01 4.322097130528E-01 -2.338640470511E-01 -2.497484438208E-01 2.422976534429E-02 5.688551183283E-01 -6.547781238467E-01 -3.453947322888E+01 6.194135792653E+01 -6.486946584307E-01 -1.725893934014E+02 3.070375264630E+03
 -9.013453553386E-02 1.282685546837E-01 -1.748949622766E-01 -3.531512680624E-01 -8.281849999170E-02 3.039998355393E-01 7.831675978545E-02 1.770958578339E-01 1.282486700121E+01 -2.385215413796E-01 -3.403594894594E-03 1.182654377595E+01 -9.084480036980E-01 -1.697619350420E+01 1.524707585032E+02
 -1.221674945611E+03 4.466292342781E+02 3.914068257546E-01 -4.597853543395E+02 -1.226588199207E+01 -1.238853502649E+00 6.172168220118E-01 6.241746050154E-04 4.209364319405E-01 1.580085881873E+00 -1.824151470893E+00 3.348300596887E-01 -2.199141124852E+00 -3.434901033061E-01 5.337691440505E-02 2.815668202542E+03
 4.422297899775E+02 -7.442670755559E+02 1.844164181515E+00 -9.469968175486E+00 -1.424090144858E+03 8.675402568879E+00 -4.708907472563E-01 4.150636912820E-02 2.290123115333E-01 -1.437524579497E+00 1.258352176944E+00 -1.153689185188E+00 1.786468361578E+00 2.983539658238E-01 3.952801224209E-02 -4.201551321713E-03 2.775597784836E+03
 -1.813438079792E+00 3.835411923356E+00 -8.362358240805E+01 1.934771743345E+00 6.836276195210E+00 -8.039409608885E+01 -4.541243409904E-01 1.032089355489E-01 4.957734661432E+00 2.152031303153E-01 1.435995305607E+00 -8.574624584184E+00 -1.185793696263E-01 2.887336202701E-01 4.238221738158E-01 -4.737222743681E+00 -1.404957122377E+01 1.928728509719E+02
 -1.213933573643E+03 -4.181800123562E+02 2.079733746316E+00 5.877035351109E-01 -2.066549517116E-01 8.795512639951E-02 -1.235702795879E+03 4.408967629069E+02 1.273727024813E-01 -4.723644245773E+02 -3.799849431710E+00 -9.591016195307E-01 -1.394958983715E+00 -2.468937942964E-01 8.116441342316E-02 -1.998652039896E+01 -3.245418092905E+01 9.981258284482E-01 2.807609153395E+03
 -4.173133685747E+02 -6.984735654383E+02 4.448746285616E+00 -2.338142332902E+00 1.121508183619E+00 3.397639120490E-02 4.474255065919E+02 -7.342196673133E+02 2.856271059215E+00 -9.984977905080E+00 -1.467122830458E+03 7.165263895669E+00 3.342772138719E+00 5.305344607032E-01 -6.281667959942E-01 3.707547212188E+01 5.766546812324E+01 -1.440232276649E+00 -1.914449547036E+01 2.782975328720E+03
 4.488829526608E+00 2.417845830217E+00 -8.190193016053E+01 -1.188243322417E-01 -2.827603115421E-01 -8.869821598586E+00 -2.268390688193E+00 4.248812085042E+00 -8.327926258871E+01 1.001584530070E+00 6.774620478232E+00 -8.304868637547E+01 6.591749755553E-01 1.066015493325E+00 -1.045917461898E+01 2.396370071931E-01 -1.501176274216E-02 8.743757812148E+00 -2.858782950873E+00 -1.374395228333E+01 1.932680852740E+02
 1.013748817048E+00 -3.462780786138E+00 9.112622968061E-01 -1.201958943548E+03 -4.227133897694E+02 2.896899571241E+00 1.456858541040E+00 -2.593266021206E-02 -2.350504818838E-01 -1.193820643676E+03 4.405737065355E+02 -6.015679307005E-01 -3.784413695374E+00 -7.094621280537E-01 1.359726066462E-01 3.499549741119E+01 1.285853831191E+00 -1.218003383085E+00 3.991751291654E+01 2.820484572816E+00 1.752510745884E-01 2.745328589919E+03
 -8.402045983366E-01 2.161797111669E+00 6.752251936603E-01 -4.244964330479E+02 -6.998295908482E+02 4.697596253189E+00 -4.761354990076E-01 1.872648853295E-01 7.524333538449E-01 4.435275593855E+02 -7.415737203925E+02 3.452791923118E+00 3.298764325369E+00 5.303753657498E-01 3.530525164339E-01 -6.445398202565E+01 -4.034328609176E-01 4.856665208511E-01 6.779876072261E+01 -1.975253812135E+00 1.159696641402E-02 -2.943929022981E+00 2.765946145903E+03
 -1.022986937378E+00 -3.898984483431E-01 -8.969242498506E+00 4.890693036655E+00 3.495578703434E+00 -8.051542452899E+01 1.861590170711E-01 1.995429600803E-01 4.751520600622E+00 -2.096721243656E+00 4.003790903485E+00 -8.246607954522E+01 2.086959110908E-01 1.951469961654E-01 4.611608362927E+00 5.605074844353E-02 6.686728735514E-01 8.652990766177E+00 1.204711442571E-01 -3.099530980343E-01 9.120852315521E+00 -3.347653364122E+00 -1.723851301873E+01 1.886719964663E+02
 1.761905313396E+00 -3.973228783985E+00 3.221048546449E-02 2.326287634002E+00 -1.306667916597E+00 -1.447803311432E-01 -1.242922842733E+03 -4.438215903354E+02 1.624778212753E+00 3.713653074898E+00 -3.113076550081E+00 3.123100294842E-01 -5.779628496585E+02 -9.976253671077E+00 -1.862692795893E-03 -2.061990200118E+00 1.715791245992E+00 -6.289668011935E-03 -2.248962929482E+01 -3.331925176616E+01 4.623103964292E-01 -3.691605996727E+00 2.950617062887E+00 1.257605067266E-01 2.596919856486E+03
 -2.270915070350E-01 4.849338401097E-01 -2.318882115639E-01 -4.224873270664E-02 1.709724371266E-01 3.427139735764E-01 -4.593934498445E+02 -7.680274839074E+02 3.713161060872E+00 -5.205915640207E-01 2.358570419893E-01 2.752979243617E-01 -1.508994815632E+01 -1.835035665389E+03 1.030707939099E+01 2.358317367483E-01 -2.305269544809E-01 -1.802847350993E-01 3.554631028348E+01 6.045563242298E+01 -1.652127505033E+00 4.372723154654E-01 -6.415374476182E-01 -2.114350559016E-01 1.916686502112E+02 3.043192375058E+03
 -8.731964788688E-02 -3.309877772182E-02 4.704520810157E+00 4.615618393888E-02 -2.528529612898E-02 -8.584152841523E-02 3.480024731865E+00 3.665711217111E+00 -7.686072003092E+01 -2.959916249026E-01 -9.215826962065E-03 -1.077635483318E+01 7.101031746081E-01 9.550416376196E+00 -7.154158664480E+01 5.621725904233E-02 6.935626787383E-02 -3.165052582414E-02 -9.628694082726E-02 -4.669588796325E-01 1.001008564347E+01 -9.937815390386E-02 -2.755786719324E-02 9.832826320821E-02 -2.585218243824E+00 -1.535025721159E+01 1.527347915163E+02
 5.235483087284E-01 -9.571797153185E-01 -6.085615023182E-01 6.491592861971E-01 -2.599951159809E-01 4.506134823096E-01 2.537395221422E-02 3.062348936347E-03 1.654173194191E-01 -1.258977460670E+03 -4.331222733813E+02 3.275288638347E+00 -1.273533380555E+03 4.594036423865E+02 -1.269199575058E+00 -5.089822791240E-01 3.494369058622E-01 -2.835536232295E-01 3.900679283269E+01 7.883333612057E-01 -1.305586728030E+00 -2.113739469835E+01 -3.320753275679E+01 7.370251977652E-01 5.118809448781E+01 -4.637174567317E-01 3.129344355168E-01 2.908476256403E+03
 -8.928343562192E-01 2.251282456711E+00 -1.302323750086E-01 -1.807771125341E+00 6.898907378022E-01 -2.133148162640E-01 -8.976236996120E-01 4.686669665941E-02 6.028841148401E-01 -4.355301872650E+02 -7.320630221775E+02 4.156368378684E+00 4.534167524585E+02 -7.875586561691E+02 3.880101359087E+00 1.174381700839E+00 -8.863878409170E-01 -5.693971171061E-01 -6.921441170932E+01 -1.818847636467E+00 5.917520308986E-01 3.864673611862E+01 5.865782789721E+01 -8.173991666171E-01 8.786803711538E+01 -8.456516269335E-01 2.389764350852E-01 -2.598977649147E+01 2.971184665396E+03
 3.303053444255E-01 -1.437469587380E-01 4.843148714785E+00 1.577816518155E-01 -1.165763619090E-01 4.076776562688E+00 -2.633419494310E-01 -2.121249360229E-01 -1.079505809292E+01 4.316827499238E+00 3.004734089027E+00 -8.791515751262E+01 -2.019703702904E+00 4.487394715428E+00 -7.925045980027E+01 4.280228233916E-02 -1.556448377917E-01 -5.976982519207E-01 -1.612724228922E-01 8.882483307646E-01 9.164379315202E+00 -4.273743187387E-01 1.415357529789E-01 1.000131797625E+01 -2.781098497185E-01 -3.277038276221E-01 1.124585001384E+01 -2.115865808173E+00 -1.695654251939E+01 1.915911770065E+02
 -4.124901514523E-01 1.519878459240E+00 1.809250100728E-02 -1.862467976355E+00 4.014356810315E-01 -8.218536197995E-02 -9.544235970248E-01 -1.266461981559E-01 -2.062000108843E-01 -1.286277181317E+00 1.657835086087E+00 -5.198786023041E-01 4.365240336210E-01 1.615746034415E-01 -3.982687404201E-01 8.888441690037E-01 -6.087600117430E-01 -6.309073283942E-01 3.969592474212E-01 -1.748494122764E+00 -2.173201678562E-01 1.848781402406E+00 -3.188117631796E-01 4.163447670280E-01 7.374898630836E-01 2.761524072719E-01 6.848593982528E-02 3.783210504923E-01 -1.250214777451E+00 3.579250036652E-01 2.819235667371E+03
 8.854085690371E-01 -2.384099109394E+00 -1.313763522089E-02 2.363076851616E+00 -7.164000259570E-01 4.269260406131E-01 1.181480265241E+00 5.575417343166E-02 -1.914213040883E-02 2.192076303070E+00 -2.398279855049E+00 6.458602149857E-01 -1.961960132806E+00 -4.082691877919E-01 1.957854483593E-01 -1.363292705093E+00 9.049725476144E-01 3.152126843365E-01 -7.191104710995E-01 2.500720525837E+00 3.244084694565E-02 -2.653513464179E+00 9.923473738161E-01 -9.941371136070E-02 -2.109308792720E+00 3.403598840478E-02 -7.205081728571E-02 -6.138071331790E-01 1.753181935207E+00 -2.420110564793E-01 4.700357960695E+00 2.816730228812E+03
 -2.949472123641E-01 4.045622318103E-01 5.686886145146E-02 -3.191350388902E-01 3.011548393825E-01 -4.494315092911E-02 -1.501008858051E-01 2.297263567165E-02 -3.357111669002E-01 -4.415349975551E-01 3.455723070599E-01 -2.735203278320E-02 8.088088402209E-01 1.578430085671E-01 -1.272783576645E-01 4.916828170740E-01 -2.840726077056E-01 4.335728090685E+00 1.708975669222E-01 -3.609683481211E-01 -6.308022958215E-02 4.595802316264E-01 -4.547094748306E-01 -8.690720474423E-02 7.986140198842E-01 -2.015870851557E-01 -1.871861746666E-01 1.354661333244E-01 -2.071064502777E-01 8.941658901993E-02 -7.673700508789E+00 -1.313403355075E+01 1.963679237738E+02
 -8.048899497973E-01 1.611410391926E+00 -1.090317502359E-01 -4.992096417043E-01 5.626184632908E-01 -6.745041998222E-02 -1.453991042165E-01 2.620158429272E-01 3.856807906711E-01 -1.619234962052E+00 1.123991273693E+00 3.498379529203E-02 3.539911087562E+00 5.607949778452E-01 4.710406123522E-01 7.462846646795E-01 -6.412989887709E-01 2.192961087953E-01 5.292014488161E-01 -1.176251493945E+00 1.154851422576E-01 1.272730359903E+00 -1.514726026789E+00 -5.355765477308E-01 3.063224763677E+00 -9.071172205901E-01 -1.440966358986E-01 3.956723182838E-01 -7.124365076607E-01 -2.747295633829E-01 4.230338803797E+01 7.242031984453E+01 -1.568813539136E+00 2.783939694550E+03
 3.078960802565E+00 -7.515643302426E+00 -4.792794965489E-01 5.871755603255E+00 -2.457992349608E+00 3.862692641596E-02 2.801217386332E+00 -2.531531823292E-01 -5.079584344747E-01 6.961517681511E+00 -6.644489380738E+00 1.074617148509E+00 -8.945533482125E+00 -1.617591157192E+00 2.387242585810E-01 -4.203506750348E+00 3.129983002045E+00 7.583495134920E-02 -2.348754708319E+00 6.989337949607E+00 1.034571172250E-02 -7.521715426199E+00 4.300963066914E+00 -2.868766287611E-01 -8.620335604666E+00 1.266582340294E+00 1.143188467163E-01 -1.888626933878E+00 4.733646603948E+00 -7.373134584239E-01 2.313495370421E+00 -7.281972399589E+00 1.260743579532E+00 2.882547518134E+02 2.851994838081E+03
 -3.361969951866E-01 7.539237798866E-01 -5.700972385160E-01 -2.090329534443E+00 1.126737144969E-01 1.170483282317E+00 -9.480918937111E-01 -3.472206974716E-01 1.285934675456E+00 -1.402652019261E+00 1.620072688035E+00 1.589633552853E+00 -4.909570119496E-02 -1.955872591974E-02 2.172554665124E+00 4.954827896704E-01 3.595160735678E-03 1.770214530410E+00 4.657129601058E-01 -1.534491542049E+00 6.210223403571E-01 1.570277574619E+00 3.655083944381E-01 -5.040106346743E-01 2.552799454293E-01 3.405743561808E-01 -3.659918939951E-01 3.658856186166E-01 -9.817936651609E-01 -3.403054427114E+00 -1.442619215104E+00 8.381117617391E-01 1.013925117009E+01 -8.436674797062E+00 -1.116508189028E+01 1.586452068803E+02
 -2.107599073869E+01 -3.176056845924E+01 -3.366390651222E-01 3.607313467686E+01 6.463862734133E-01 1.349577448519E+00 -8.796348785632E-01 -2.511206654472E-02 -2.715860642646E-01 -2.222069248809E+00 2.164048943531E+00 -2.867443790314E-01 2.450589186672E+00 4.249171295719E-01 -2.280689737301E-01 -1.250622778710E+03 -4.359133292169E+02 4.961700463778E+00 7.120238290943E-01 -2.273098252199E+00 -6.107452489169E-01 2.663734347631E+00 -1.315256352216E+00 3.740526168180E-01 2.398663336176E+00 -2.036991931805E-01 -7.847785216810E-02 6.418914179710E-01 -1.561368524924E+00 3.005599050422E-01 -2.061552364702E+01 3.621195010079E+01 -5.383439447697E-01 -8.073979249375E-01 5.228229484783E+00 -1.139196775318E+00 2.791071614654E+03
 3.786303145048E+01 5.669378097054E+01 2.121998815172E-01 -6.400326166898E+01 -8.140663527551E-01 -1.004059792283E-01 1.745560363675E+00 6.865264015618E-02 2.237166688499E-02 3.693435576270E+00 -3.813530010398E+00 9.974354224518E-01 -3.885862425239E+00 -7.387126285093E-01 2.471705548052E-01 -4.418490058660E+02 -7.221937336585E+02 3.556153518901E+00 -1.218101224984E+00 3.909163892833E+00 2.782907200310E-02 -4.384838981363E+00 2.044180805627E+00 -2.141317160263E-02 -3.940501081745E+00 2.723221034194E-01 -6.330219107204E-02 -1.034447720946E+00 2.761716712185E+00 -3.428088039403E-01 -3.026758694777E+01 5.430263422745E+01 3.027793713910E-01 1.073157989762E+00 -8.899567591707E+00 1.618351872161E+00 2.483359676121E+01 2.800593635326E+03
 -6.536603549416E-01 6.927182144479E-02 9.683989084463E+00 2.632570625078E-01 -5.158212718712E-01 9.267857517488E+00 -3.773754750385E-01 -1.552359872067E-01 -1.386440704161E-01 -7.526598627358E-01 8.110470050972E-01 2.316474231222E-01 7.252144017426E-01 1.961981174170E-01 2.069820786114E-01 3.341881921864E+00 4.528610690181E+00 -8.340695460737E+01 6.745722565565E-01 -4.311825265019E-01 4.638514786783E+00 2.273543844769E-01 -6.583128739576E-01 4.261515516104E+00 8.085958133987E-01 -1.659351752273E-01 -2.286836940332E-01 1.229361150803E-01 -4.510390060298E-01 -4.107666305990E-01 -3.878199087156E-01 5.182443580738E-01 8.996743274951E+00 -3.890610913896E-01 8.470479620519E-01 5.349895295515E-01 -4.607407994527E+00 -1.259855783809E+01 1.930982342756E+02
 1.675997451584E+00 -4.466133684822E+00 -5.942435177379E-01 -1.473938005188E+01 -3.364593078572E+01 -4.182774437691E-01 2.068640865879E+00 4.462142484385E-02 -2.278553786694E-01 4.066651398056E+00 -4.155074018342E+00 7.007264146250E-01 -3.765778590014E+00 -7.132034276013E-01 5.616210285483E-01 -2.870657610596E+00 2.229863998667E+00 2.526565716891E-01 -1.449056442060E+00 4.423953698061E+00 1.396128658620E-01 -4.750219157603E+00 2.045730366163E+00 -7.854987438478E-01 -3.926542058234E+00 1.383209871050E-01 -3.725683192864E-02 -1.164883039797E+00 3.030997181166E+00 -7.667408716057E-01 4.284571913365E+01 -7.390612014039E+01 8.258245234514E-01 -2.202810292657E+01 3.151791511228E+01 2.136377877075E+00 4.404769391456E+01 6.219536845315E+01 -5.273092501564E-01 2.799903672005E+03
 6.034037852044E-01 -1.368324649621E+00 -7.722404321215E-02 3.482880064600E+01 5.682559505765E+01 3.667459462173E-01 3.267231036217E-01 -6.948351297084E-02 -1.847329390283E-01 1.279898809881E+00 -1.045499638929E+00 6.298397507002E-02 -1.973360087647E+00 -3.135158259674E-01 -1.003883078859E-01 -3.188581048901E-01 6.954989856318E-01 -3.966530636310E-01 -4.110485631951E-01 1.038129666800E+00 -2.412176775341E-01 -1.182677052196E+00 8.101723458639E-01 -1.445268765401E-01 -1.742236923343E+00 3.277074549783E-01 1.915679839223E-03 -3.447532323718E-01 7.338944860323E-01 -1.938611049580E-01 4.428962914399E-01 -5.169183856044E-01 -4.406263813404E-01 -4.175248134818E+01 7.197997995220E+01 -1.434795256559E-01 4.657858484462E-01 -1.525210115360E+00 9.818607398037E-01 -3.988703873375E+01 2.789641514980E+03
 2.926933933145E-01 7.161519522836E-01 6.610740373078E-02 -5.514287590828E-01 -1.921615044337E-01 8.475049286310E+00 2.211307504870E-02 -3.436743847287E-01 -6.004720574917E-01 -1.063814456071E+00 1.947583276046E-01 1.156218410211E-01 1.339608725464E+00 -1.169997434142E-01 -2.286738516122E-02 3.113139329550E-01 -8.156645945597E-01 -9.261114744999E+00 1.651399724509E-01 -3.465943764400E-01 -5.757789894728E-02 1.797716767384E+00 -2.483456666411E-01 4.054694124433E+00 1.413358326052E+00 5.355827048917E-02 -4.493172669822E-01 7.523051308830E-01 -2.321037436513E-03 -3.228873770565E-01 6.615313959092E-01 -4.597482687104E-01 1.041293653230E+01 6.821057764984E-02 2.344619795298E+00 1.177887343258E+01 -9.293691121106E-01 1.266978440868E+00 9.571381092221E+00 -8.319090540920E+00 -1.497594771802E+01 1.902213088514E+02
 9.231021391625E-01 -2.571549999454E+00 -9.519911400710E-02 2.405766024335E+00 -8.171859037293E-01 1.599133914290E-01 1.225605606054E+00 9.265765450203E-02 1.198021990542E-01 2.307888571044E+00 -2.474354745888E+00 3.707502960622E-01 -1.892558073987E+00 -3.921071659233E-01 2.212365949258E-01 -1.436249409924E+00 1.031798062212E+00 3.796448556834E-01 -8.162330619965E-01 2.572869883495E+00 8.616510770657E-02 -2.726390048596E+00 1.043082073124E+00 -6.862118710951E-02 -1.968442228887E+00 -3.343506947451E-02 4.341842173904E-02 -6.507203690558E-01 1.787972489033E+00 -3.044655355476E-01 -1.235447512451E+03 4.335673277502E+02 1.950385180383E+00 -5.093556243149E+02 -2.336186545262E+01 1.531651238578E+00 1.958154035632E+00 -3.506444505135E+00 4.515530309131E-01 -4.229072286764E+00 -7.471270253853E-01 -7.978260655635E-01 2.861846104085E+03
 -1.523308244396E+00 4.155590378991E+00 3.242713303072E-01 -4.021647066716E+00 1.263498801437E+00 -3.594827178266E-01 -2.041041414509E+00 -7.659883446043E-02 3.091395971247E-02 -3.713391124399E+00 4.064928151561E+00 -9.374847032763E-01 3.264589732223E+00 6.882412696824E-01 -4.721040361145E-01 2.396971042323E+00 -1.697143179525E+00 -2.926661758362E-01 1.243232843181E+00 -4.274077736001E+00 -9.169117068379E-02 4.518073985314E+00 -1.696870075199E+00 3.875559466475E-01 3.528026713176E+00 -4.641114518704E-02 6.406495098900E-02 1.046890662194E+00 -2.972729416605E+00 5.659554348890E-01 4.340825604018E+02 -7.330375297100E+02 6.120926459502E-01 -2.912556010539E+01 -1.540950166436E+03 4.932356583137E+00 -3.265021173599E+00 5.865069892971E+00 -4.806586009185E-01 6.444109085914E+00 9.463090725371E-01 -1.466508588553E+00 3.998797716596E+01 2.907425402500E+03
 -1.482785291075E-01 2.285457815347E-01 2.486339864385E-01 4.958140312878E-01 1.632901545576E-01 -4.472447158268E-01 2.102364091137E-01 2.167545578582E-01 -1.162630030266E+00 4.464978710507E-02 -2.443423526077E-01 -4.345889542342E-01 1.125040141822E+00 2.535581115772E-01 -9.182750519502E-01 2.533415234665E-01 -3.972408635576E-01 -9.789882939018E-01 -7.248673285454E-02 1.414618960149E-01 -3.048457188246E-01 -6.116595295368E-02 -6.641230894724E-01 -1.103226323371E-01 9.691063784791E-01 -4.708057357471E-01 -2.692593066531E-01 3.288139431730E-03 1.774142202819E-01 1.154726441928E+00 1.671710158539E+00 2.067562922884E+00 -8.494410581725E+01 8.330623324355E-01 7.045492332566E+00 -8.172149125293E+01 8.630686185265E-02 -2.236971922777E-01 4.836370497378E+00 -3.006073732052E-01 7.729187255350E-01 -8.806642762925E+00 -9.038771996646E+00 -1.272736022110E+01 1.893727737187E+02
 5.559843975383E-01 -1.668764214222E+00 1.712987258232E-01 1.337244677349E+00 -4.909046059812E-01 -8.951501784440E-02 7.359801433130E-01 1.311496674919E-03 9.928494856875E-02 1.430728718000E+00 -1.648954101758E+00 6.305892771392E-01 -1.551836693606E+00 -3.120446101892E-01 2.513825354570E-01 -2.028272362789E+01 3.565588063388E+01 6.005162558270E-01 -3.602838911476E-01 1.720200426407E+00 2.709663136268E-01 -1.813583873844E+00 7.117747729065E-01 1.896864812074E-02 -1.648004026126E+00 1.007588347888E-01 -5.123880138133E-02 -4.062906156709E-01 1.199245727561E+00 -2.518546232232E-01 -1.225966118859E+03 -4.269683616973E+02 4.943412953806E+00 1.207698330874E-01 -3.823000939366E+00 1.818417185327E+00 -1.182875388879E+03 4.225907787837E+02 1.038538753193E+00 -4.814126269573E+02 -1.088619817792E+01 1.458091026720E+00 -2.101950521921E+01 -3.150444178604E+01 2.696405359487E-01 2.772243881327E+03
 -1.606566900458E+00 3.935281110532E+00 1.269495495419E-01 -3.399337094432E+00 1.200914161460E+00 -1.425983400284E+00 -1.564081235025E+00 6.992456611037E-02 2.649427862580E-01 -3.689159703886E+00 3.587342857629E+00 -7.470311022437E-01 4.397785812658E+00 8.092574542252E-01 -2.927051835179E-03 -3.097257423626E+01 5.729902352804E+01 -5.690974543298E-02 1.258718265094E+00 -3.714854738503E+00 2.247779098993E-01 4.002585435442E+00 -2.093692562768E+00 -1.110326586759E-01 4.267622944038E+00 -5.162190099928E-01 2.832422394902E-02 9.981958469916E-01 -2.573990215802E+00 2.752417702897E-01 -4.308939158286E+02 -7.136520059090E+02 4.452856353691E+00 -1.395421383169E+00 8.613305821975E+00 -1.183865499274E-01 4.241321362710E+02 -7.150185190960E+02 7.543657617502E-01 3.773795888952E+00 -1.514260904001E+03 8.703347259913E+00 3.790235365489E+01 5.475950686667E+01 -1.310028229132E+00 5.993661323097E+00 2.829116781896E+03
 -1.977314868955E-01 3.475608621007E-02 4.490558644340E+00 5.439481562601E-01 1.008571079310E+00 -8.897691885407E+00 3.910269380197E-02 -8.075843211687E-02 8.779861050098E-02 8.220946084453E-02 4.759017626263E-02 1.918185865295E-01 -2.969881643745E-01 -8.931502006441E-02 1.620742892337E-01 7.523128659613E-01 -1.032417184037E+00 9.291489611707E+00 1.815325837150E-01 5.719424770265E-02 5.133357651145E-02 -3.885791973367E-01 -1.487490439251E-01 -9.257840942669E-02 -3.346504665919E-01 1.186697320651E-01 5.859185457086E-03 -3.222574643088E-03 6.631217483567E-02 -1.560084395949E-01 5.870388633412E+00 4.237186113063E+00 -8.345949492222E+01 -2.688506506677E-01 -1.103836342858E+00 -9.755317428701E+00 -4.780338898312E-01 2.757559278699E+00 -8.145778171954E+01 2.301416115928E+00 7.430011255837E+00 -8.412165994113E+01 5.979589610486E-01 3.410021326388E-01 9.334577000256E+00 -7.519577778573E+00 -1.452164078679E+01 1.935980382141E+02
 -2.729168092154E+00 6.937758170879E+00 6.185971219217E-01 -5.870985606225E+00 2.267858431928E+00 1.082395419208E-01 -2.869621405275E+00 1.240642832034E-01 4.601996663911E-01 -6.325223011859E+00 6.362767050331E+00 -1.245498028486E+00 7.307445965765E+00 1.365900647747E+00 -5.456331119746E-01 3.901052545851E+00 -2.982155328878E+00 -3.220514660876E-01 2.100083317700E+00 -6.708665273768E+00 -9.657193052071E-02 7.170812027403E+00 -3.577073867827E+00 7.437836830247E-01 7.304443247614E+00 -8.005128271367E-01 2.945345235751E-02 1.737732673154E+00 -4.592883919345E+00 8.854448148898E-01 -4.085313417686E+00 5.582706216607E+00 -2.386789012406E-02 -1.516992191122E+03 -5.171635278796E+02 4.233108930274E+00 -4.973983594570E+00 8.826270079139E+00 -9.018309256439E-01 -1.277897988370E+03 4.432654418808E+02 7.977395749470E-01 5.468485377190E+01 -1.052884777472E+01 -3.851556486814E-01 4.411991188789E+01 -8.334509358516E+00 5.362787533355E-02 3.076170725590E+03
 2.705625485853E+00 -6.212599672514E+00 -2.003665864793E-01 4.034762928930E+00 -2.020507588005E+00 1.100475191020E-02 1.834322668677E+00 -4.437885705917E-01 -7.006320876233E-01 5.869763334782E+00 -5.124253310294E+00 5.845655109824E-01 -9.072710360416E+00 -1.557677640526E+00 -3.095651325046E-01 -3.333264897238E+00 2.529398777475E+00 -1.123817613273E-01 -1.979390374698E+00 5.401879667141E+00 -1.076721698593E-01 -5.820461751822E+00 4.184663881182E+00 3.596916193926E-01 -8.361976015772E+00 1.716719827008E+00 2.151343283736E-01 -1.541460809747E+00 3.572182431973E+00 -1.607114625543E-01 1.516372307054E+00 -3.585656247501E+00 1.258819457076E+00 -5.357295334249E+02 -8.829923771940E+02 5.189000915492E+00 3.994860674056E+00 -6.419850675920E+00 9.748290985298E-01 4.177343574756E+02 -7.364752247046E+02 2.920671229774E+00 -9.040434200800E+01 8.565084157457E+00 1.321021682828E+00 7.073113271356E+01 6.391261795259E+00 -5.373609496468E-02 1.002742642087E+02 2.530286049162E+03
 2.914731064505E-01 -8.171347291124E-01 2.758086626093E-03 -4.428007345924E-02 -3.071534540552E-01 4.626947065690E+00 2.622761507309E-01 -2.233666048409E-01 -6.797612889521E-03 2.538367511011E-01 -6.111895532444E-01 -7.538813302971E-02 -7.089353618541E-01 -2.524550594165E-01 -1.424281552886E-01 -1.692337402895E-01 8.660303959508E-01 -8.026739318386E-02 2.172896304948E-02 7.733573488747E-01 -3.818170465186E-02 -2.178197049297E-01 2.267431308377E-01 6.475936746539E-02 -7.052982080985E-01 2.781746005576E-01 1.118574542092E-01 1.797023167543E-02 3.984983097500E-01 3.280858682494E-01 -1.169728366499E+00 -4.627843049679E-01 -1.057042335809E+01 8.436037920579E+00 3.468467284289E+00 -7.112341190659E+01 1.038072243215E+00 -8.222689747005E-01 4.579392765756E+00 2.139332463355E+00 3.672671932017E+00 -7.765349986902E+01 4.547940406767E-01 2.136510034317E+00 1.097949346222E+01 -9.365396860373E-01 -5.988228682994E-01 9.963696415918E+00 -1.093089734046E+01 -1.256096948334E+01 1.525184440221E+02
 4.010820142420E-01 -6.783019043553E-01 5.698035213855E-02 -1.245380698934E+03 4.468627169551E+02 4.377619870507E-01 1.968690762957E-01 -6.369971578724E-02 -1.829351347207E-02 6.695115722669E-01 -6.345849971837E-01 2.749202240305E-01 -1.155059982342E+00 -2.353943238160E-01 -1.316169295564E-01 3.992627600980E+01 -3.473323519712E-01 -3.111636532955E-01 -2.007929135116E-01 5.770809900733E-01 -3.369480729381E-01 -2.036044096716E+01 3.571158460053E+01 1.517153594863E-01 -1.017619389568E+00 2.294735670317E-01 -6.767079650747E-02 -1.124071242120E-01 4.557951236482E-01 2.839625280643E-03 2.902156596120E-01 -5.085377560758E-01 1.290883420086E-01 4.863815958032E-01 -1.626890555980E+00 -1.218661496402E-02 1.810294528375E-02 -7.186189076874E-01 1.204804139110E+00 -1.158846331250E+03 -3.925245929852E+02 4.023785162835E+00 -4.585909525216E-01 6.821620681153E-01 1.952540922209E-01 3.681290132220E+01 1.021866809223E+00 -9.504624286082E-01 -1.653014418355E+01 -3.426775527879E+01 4.736002094565E-01 2.776138956258E+03
 -1.578470564357E+00 4.262401816367E+00 5.049902941797E-01 4.529257444264E+02 -7.423911030571E+02 2.811227238145E+00 -1.897375454374E+00 2.738585495002E-02 3.083859038844E-01 -3.781671922547E+00 3.979552349929E+00 -8.735413416712E-01 3.931912521186E+00 7.916607152714E-01 -4.419258750217E-01 6.977435732694E+01 -2.410351948934E+00 -5.061458941690E-01 1.198137163108E+00 -4.217691399243E+00 1.968642194755E-01 -2.924991872458E+01 5.773305911882E+01 1.101571322737E+00 4.050317324916E+00 -2.872442065153E-01 1.616084658996E-01 1.026032161146E+00 -2.907973889652E+00 9.246947185907E-01 -2.823666552757E+00 3.811322072906E+00 -5.678954481908E-01 -1.118226171180E+00 9.279244322189E+00 -3.218876526243E+00 -3.055335007083E+00 5.844986379818E+00 -5.615896411788E-01 -3.843652790577E+02 -6.760741097077E+02 4.171540485316E+00 3.693351506530E+00 -6.284720248445E+00 6.447437940410E-01 -6.386516332643E+01 -5.054828312682E+00 4.713345165609E-01 2.286429914142E+01 6.519728979818E+01 2.277594911950E-01 -4.345639197495E+00 2.844436282385E+03
 -1.757724601607E-01 1.060652218338E-01 5.017505281117E+00 -1.677378960247E+00 5.661726855201E+00 -8.419342969705E+01 4.963049717441E-01 2.628077048401E-01 -1.235230388110E+00 4.063859066734E-01 -4.090244293709E-01 3.774098495431E+00 9.682564524282E-01 1.883718942938E-01 -1.321533584381E+00 9.715607037852E-01 -4.343410435382E-01 7.537270934880E+00 -2.137917547565E-02 4.463500776510E-01 -4.219468627579E-01 -1.336299502024E-01 -2.187002834516E+00 9.663901633587E+00 7.705511416623E-01 -4.714137681376E-01 -1.066150019838E-01 -5.491520186425E-02 3.807553385100E-01 1.899241309755E+00 1.867437159568E+00 -4.180884047594E-01 5.385351338239E+00 -1.846633207840E+00 -6.206961304861E-01 3.493027833274E-02 -7.956894437759E-01 -1.837433241495E+00 -8.926683415507E+00 5.059264306077E+00 3.931255139680E+00 -8.088751219755E+01 -6.298374469308E-01 9.288614047550E-01 3.717144518332E+00 -1.261842352305E+00 1.650241461023E+00 7.711555763700E+00 1.996789940128E+00 1.082579570943E+00 9.770038613692E+00 -4.449851173672E+00 -2.041195998591E+01 1.950345337696E+02