#BIOSYM hessian 1
@Type: Hessian Update
@Units
 distance: 	A
 energy: 	Kcal/Mol
#header
@natom 67

#label
C1      C2      C3      C4      C5      C6      C7      C8      C9      C10     C11     C12     C13     C14     C15     C16     C17     C18     C19     C20     C21     C22     C23     H24     C25     C26     C27     C28     C29     C30     C31     C32     C33     C34     C35     C36     C37     C38     C39     C40     C41     C42     C43     C44     C45     C46     C47     C48     C49     H50     H51     H52     H53     H54     H55     H56     H57     O58     H59     H60     H61     H62     H63     H64     H65     H66     H67

#element
C  C  C  C  C  C  C  C  C  C  C  C  C  C  C  C  C  C  C  C  C  C  C  H  C  C  C  C  C  C  C  C  C  C  C  C  C  C  C  C  C  C  C  C  C  C  C  C  C  H  H  H  H  H  H  H  H  O  H  H  H  H  H  H  H  H  H 

#matrix
201
 2.780436723226E+03
 -2.045444308378E+01 2.819934789726E+03
 0.000000000000E+00 0.000000000000E+00 0.000000000000E+00
 3.916206490804E+01 6.785484003001E+01 0.000000000000E+00 2.785614354172E+03
 -1.463720784661E-01 -5.360610862254E-01 0.000000000000E+00 -2.134877433978E+01 2.773597819372E+03
 0.000000000000E+00 0.000000000000E+00 0.000000000000E+00 0.000000000000E+00 0.000000000000E+00 0.000000000000E+00
 -1.963701975459E+01 3.457293337979E+01 0.000000000000E+00 1.788987421378E-03 2.349301707307E-01 0.000000000000E+00 2.817705744502E+03
 -3.373730066854E+01 5.952522490282E+01 0.000000000000E+00 -5.749952887952E-02 6.441710817570E-02 0.000000000000E+00 -3.018722197835E+01 2.815357456025E+03
 0.000000000000E+00 0.000000000000E+00 0.000000000000E+00 0.000000000000E+00 0.000000000000E+00 0.000000000000E+00 0.000000000000E+00 0.000000000000E+00 0.000000000000E+00
 3.926707744622E+01 -6.840534229477E+01 0.000000000000E+00 -1.960624880474E+01 3.531277870193E+01 0.000000000000E+00 4.124009780563E+01 7.210771257126E+01 0.000000000000E+00 2.787310419225E+03
 -4.667167714332E-01 5.217617539106E-01 0.000000000000E+00 -3.291897305155E+01 5.876566940999E+01 0.000000000000E+00 -5.755224576574E-01 -7.805645465923E-01 0.000000000000E+00 -1.773774360325E+01 2.835181688493E+03
 0.000000000000E+00 0.000000000000E+00 0.000000000000E+00 0.000000000000E+00 0.000000000000E+00 0.000000000000E+00 0.000000000000E+00 0.000000000000E+00 0.000000000000E+00 0.000000000000E+00 0.000000000000E+00 0.000000000000E+00
 -1.146820546994E-01 1.999699820527E-01 0.000000000000E+00 -2.644199672443E-01 2.547842162735E-01 0.000000000000E+00 4.241099669100E+01 -7.296581983814E+01 0.000000000000E+00 -2.148102658269E+01 3.821035737489E+01 0.000000000000E+00 2.639373488633E+03
 8.001455245321E-02 -2.872260204100E-01 0.000000000000E+00 1.645488715595E-01 -1.902820198421E-01 0.000000000000E+00 6.502846165747E-01 -1.041089753435E+00 0.000000000000E+00 -3.555803505026E+01 6.287228124785E+01 0.000000000000E+00 -2.217233798639E+02 2.897982887330E+03
 0.000000000000E+00 0.000000000000E+00 0.000000000000E+00 0.000000000000E+00 0.000000000000E+00 0.000000000000E+00 0.000000000000E+00 0.000000000000E+00 0.000000000000E+00 0.000000000000E+00 0.000000000000E+00 0.000000000000E+00 0.000000000000E+00 0.000000000000E+00 0.000000000000E+00
 -1.231340091197E+03 4.451331152014E+02 0.000000000000E+00 -4.633907359998E+02 -1.006738035070E+01 0.000000000000E+00 2.105334119495E-02 -7.790640229315E-02 0.000000000000E+00 -2.616249591698E-01 -5.077283643702E-01 0.000000000000E+00 5.346001201518E-01 -3.584817149443E-01 0.000000000000E+00 2.818523814293E+03
 4.408022095549E+02 -7.397568477618E+02 0.000000000000E+00 -8.784363244907E+00 -1.433570553072E+03 0.000000000000E+00 -5.453139225774E-02 -1.652525744049E-01 0.000000000000E+00 -1.492215850470E-01 2.726460928986E-01 0.000000000000E+00 -5.666227659407E-02 9.048379893757E-02 0.000000000000E+00 2.932085075374E+00 2.782961618345E+03
 0.000000000000E+00 0.000000000000E+00 0.000000000000E+00 0.000000000000E+00 0.000000000000E+00 0.000000000000E+00 0.000000000000E+00 0.000000000000E+00 0.000000000000E+00 0.000000000000E+00 0.000000000000E+00 0.000000000000E+00 0.000000000000E+00 0.000000000000E+00 0.000000000000E+00 0.000000000000E+00 0.000000000000E+00 0.000000000000E+00
 -1.189937578705E+03 -4.149126995418E+02 0.000000000000E+00 1.009561360922E-01 -5.648993748833E-01 0.000000000000E+00 -1.268548980427E+03 4.446893367553E+02 0.000000000000E+00 -4.851709532714E+02 -1.062102454081E+01 0.000000000000E+00 -3.271665683845E-01 -4.647355124075E-01 0.000000000000E+00 -1.944928871923E+01 -3.296838882427E+01 0.000000000000E+00 2.822865616935E+03
 -4.148145692226E+02 -7.043421652861E+02 0.000000000000E+00 -2.563105816882E-01 -4.239821589102E-01 0.000000000000E+00 4.465219839038E+02 -7.418278283760E+02 0.000000000000E+00 -1.307716844496E+01 -1.513148934744E+03 0.000000000000E+00 -4.502765601065E-01 2.425548354715E-01 0.000000000000E+00 3.450592981700E+01 5.815512735463E+01 0.000000000000E+00 -2.137884592354E+01 2.841138113956E+03
 0.000000000000E+00 0.000000000000E+00 0.000000000000E+00 0.000000000000E+00 0.000000000000E+00 0.000000000000E+00 0.000000000000E+00 0.000000000000E+00 0.000000000000E+00 0.000000000000E+00 0.000000000000E+00 0.000000000000E+00 0.000000000000E+00 0.000000000000E+00 0.000000000000E+00 0.000000000000E+00 0.000000000000E+00 0.000000000000E+00 0.000000000000E+00 0.000000000000E+00 0.000000000000E+00
 3.396491943650E-01 -1.372865442877E-01 0.000000000000E+00 -1.218463116958E+03 -4.212367575037E+02 0.000000000000E+00 1.464853152874E-01 7.601372117006E-02 0.000000000000E+00 -1.226684114273E+03 4.397729614617E+02 0.000000000000E+00 1.547994397159E-01 -8.215038882519E-02 0.000000000000E+00 3.727901817934E+01 -4.649022801864E-01 0.000000000000E+00 4.100261609673E+01 -4.690570003068E-01 0.000000000000E+00 2.806531735715E+03
 3.778081059165E-02 -8.050993173438E-02 0.000000000000E+00 -4.239352764847E+02 -7.075313748643E+02 0.000000000000E+00 -1.123175719498E-01 7.486754596669E-02 0.000000000000E+00 4.381065199696E+02 -7.355215675037E+02 0.000000000000E+00 -1.340785242861E-01 3.840110309878E-02 0.000000000000E+00 -6.637021873125E+01 5.445423963037E-01 0.000000000000E+00 7.040650772135E+01 -3.915424764107E-01 0.000000000000E+00 4.181744461019E-01 2.810275873582E+03
 0.000000000000E+00 0.000000000000E+00 0.000000000000E+00 0.000000000000E+00 0.000000000000E+00 0.000000000000E+00 0.000000000000E+00 0.000000000000E+00 0.000000000000E+00 0.000000000000E+00 0.000000000000E+00 0.000000000000E+00 0.000000000000E+00 0.000000000000E+00 0.000000000000E+00 0.000000000000E+00 0.000000000000E+00 0.000000000000E+00 0.000000000000E+00 0.000000000000E+00 0.000000000000E+00 0.000000000000E+00 0.000000000000E+00 0.000000000000E+00
 5.464536814889E-02 2.100993386237E-02 0.000000000000E+00 6.367899204667E-02 -1.615396084329E-01 0.000000000000E+00 -1.194120052808E+03 -4.089388575792E+02 0.000000000000E+00 7.815238122394E-02 -2.002702546895E-01 0.000000000000E+00 -5.223821559981E+02 1.106253428534E+01 0.000000000000E+00 -1.070123746056E-01 5.271802692000E-02 0.000000000000E+00 -1.969062210458E+01 -3.395653288021E+01 0.000000000000E+00 -5.917222436550E-02 6.347899023609E-02 0.000000000000E+00 2.776281853050E+03
 -1.253956453542E-01 4.019332611332E-01 0.000000000000E+00 -1.361836619631E-01 1.649553804337E-01 0.000000000000E+00 -4.176164739792E+02 -7.063528046920E+02 0.000000000000E+00 -1.288365773915E-01 3.531270901348E-02 0.000000000000E+00 1.260153441546E+01 -1.635801627833E+03 0.000000000000E+00 4.335021860078E-01 -4.597964227380E-02 0.000000000000E+00 3.467222122080E+01 6.002507073745E+01 0.000000000000E+00 6.232792899944E-02 -8.476737049307E-02 0.000000000000E+00 -2.992211102183E+01 2.956192083166E+03
 0.000000000000E+00 0.000000000000E+00 0.000000000000E+00 0.000000000000E+00 0.000000000000E+00 0.000000000000E+00 0.000000000000E+00 0.000000000000E+00 0.000000000000E+00 0.000000000000E+00 0.000000000000E+00 0.000000000000E+00 0.000000000000E+00 0.000000000000E+00 0.000000000000E+00 0.000000000000E+00 0.000000000000E+00 0.000000000000E+00 0.000000000000E+00 0.000000000000E+00 0.000000000000E+00 0.000000000000E+00 0.000000000000E+00 0.000000000000E+00 0.000000000000E+00 0.000000000000E+00 0.000000000000E+00
 -4.080525681317E-02 -9.882891184264E-02 0.000000000000E+00 2.444915163897E-01 -7.973961600749E-02 0.000000000000E+00 -3.748279812854E-01 -1.073548598734E-01 0.000000000000E+00 -1.193057954861E+03 -4.183816438032E+02 0.000000000000E+00 -1.340020485574E+03 4.924128785343E+02 0.000000000000E+00 -2.995569544871E-01 3.094157570617E-02 0.000000000000E+00 3.960753722444E+01 -1.924716631228E-01 0.000000000000E+00 -1.953617363240E+01 -3.279730338604E+01 0.000000000000E+00 4.905800827640E+01 4.696554934844E-01 0.000000000000E+00 2.883992380353E+03
 -1.484391869279E-02 8.859797156078E-02 0.000000000000E+00 -1.726974521585E-01 2.796676815650E-01 0.000000000000E+00 8.822342437132E-03 3.984686381727E-01 0.000000000000E+00 -4.100491971289E+02 -7.065569157995E+02 0.000000000000E+00 4.906166860631E+02 -8.177697167192E+02 0.000000000000E+00 2.442638980133E-01 -1.137981692821E-01 0.000000000000E+00 -6.853223012364E+01 2.537048955480E-01 0.000000000000E+00 3.452599261009E+01 5.796766206974E+01 0.000000000000E+00 8.162076037822E+01 6.836096779568E-01 0.000000000000E+00 -9.299842747919E+01 2.844602318657E+03
 0.000000000000E+00 0.000000000000E+00 0.000000000000E+00 0.000000000000E+00 0.000000000000E+00 0.000000000000E+00 0.000000000000E+00 0.000000000000E+00 0.000000000000E+00 0.000000000000E+00 0.000000000000E+00 0.000000000000E+00 0.000000000000E+00 0.000000000000E+00 0.000000000000E+00 0.000000000000E+00 0.000000000000E+00 0.000000000000E+00 0.000000000000E+00 0.000000000000E+00 0.000000000000E+00 0.000000000000E+00 0.000000000000E+00 0.000000000000E+00 0.000000000000E+00 0.000000000000E+00 0.000000000000E+00 0.000000000000E+00 0.000000000000E+00 0.000000000000E+00
 6.921500024626E-02 -2.542083227699E-02 0.000000000000E+00 9.112850791724E-02 -1.639160226168E-01 0.000000000000E+00 1.186468030063E-01 6.216062147380E-02 0.000000000000E+00 1.658504966107E-02 -1.533331690288E-01 0.000000000000E+00 1.685183286810E-01 3.919296431325E-02 0.000000000000E+00 -5.412134895599E-02 1.341874811873E-01 0.000000000000E+00 -9.118992805802E-02 -9.190166717191E-02 0.000000000000E+00 -1.199447877372E-01 1.253173096138E-01 0.000000000000E+00 -7.820262087833E-02 -3.078386915584E-02 0.000000000000E+00 -9.404717590608E-02 7.907839903055E-03 0.000000000000E+00 2.805701820302E+03
 2.512912020546E-01 -1.167619907460E+00 0.000000000000E+00 6.357273926558E-01 -5.940251464302E-01 0.000000000000E+00 2.012321941968E-02 -2.636981953493E-02 0.000000000000E+00 -6.751559099114E-02 -3.190395138283E-01 0.000000000000E+00 4.848499949757E-01 -4.031283075747E-01 0.000000000000E+00 -1.641919619769E+00 4.344391710665E-01 0.000000000000E+00 1.426102137038E-01 -8.433726331937E-02 0.000000000000E+00 -4.131325128978E-01 2.818411273248E-01 0.000000000000E+00 -1.119092340302E-01 4.824360172722E-01 0.000000000000E+00 -2.617983385181E-01 2.742197095616E-01 0.000000000000E+00 -1.310111710041E+00 2.802138688165E+03
 0.000000000000E+00 0.000000000000E+00 0.000000000000E+00 0.000000000000E+00 0.000000000000E+00 0.000000000000E+00 0.000000000000E+00 0.000000000000E+00 0.000000000000E+00 0.000000000000E+00 0.000000000000E+00 0.000000000000E+00 0.000000000000E+00 0.000000000000E+00 0.000000000000E+00 0.000000000000E+00 0.000000000000E+00 0.000000000000E+00 0.000000000000E+00 0.000000000000E+00 0.000000000000E+00 0.000000000000E+00 0.000000000000E+00 0.000000000000E+00 0.000000000000E+00 0.000000000000E+00 0.000000000000E+00 0.000000000000E+00 0.000000000000E+00 0.000000000000E+00 0.000000000000E+00 0.000000000000E+00 0.000000000000E+00
 8.335162135929E-02 1.971422445013E-01 0.000000000000E+00 -6.073206399259E-02 -5.496534789399E-03 0.000000000000E+00 4.920313935331E-02 7.224171075936E-02 0.000000000000E+00 7.525725803168E-02 -1.119210209900E-02 0.000000000000E+00 7.524595114340E-02 3.069344172822E-02 0.000000000000E+00 -2.723694503284E-02 -1.343265948312E-01 0.000000000000E+00 -1.178506257478E-01 -4.335906133126E-02 0.000000000000E+00 -4.313953302848E-02 6.552210169518E-02 0.000000000000E+00 -3.430760301492E-02 -9.894855704022E-02 0.000000000000E+00 -1.037113857656E-01 -3.368241836325E-02 0.000000000000E+00 4.197421558647E+01 7.194776266183E+01 0.000000000000E+00 2.788445389932E+03
 -6.399667905344E-02 7.106816640853E-01 0.000000000000E+00 -4.464922182165E-01 4.203874366340E-01 0.000000000000E+00 -2.348138362165E-02 7.547775322672E-02 0.000000000000E+00 6.991594021094E-02 2.107392559880E-01 0.000000000000E+00 -2.929507190701E-01 2.211437993232E-01 0.000000000000E+00 9.541664760622E-01 -1.610904952446E-01 0.000000000000E+00 -9.524008801909E-02 7.909865181211E-02 0.000000000000E+00 2.312311316219E-01 -1.633633269594E-01 0.000000000000E+00 7.477113835719E-02 -3.173096878645E-01 0.000000000000E+00 1.374862062163E-01 -1.641050691722E-01 0.000000000000E+00 -9.872036580171E-01 -8.035449291369E-01 0.000000000000E+00 2.765558969973E+02 2.855147956675E+03
 0.000000000000E+00 0.000000000000E+00 0.000000000000E+00 0.000000000000E+00 0.000000000000E+00 0.000000000000E+00 0.000000000000E+00 0.000000000000E+00 0.000000000000E+00 0.000000000000E+00 0.000000000000E+00 0.000000000000E+00 0.000000000000E+00 0.000000000000E+00 0.000000000000E+00 0.000000000000E+00 0.000000000000E+00 0.000000000000E+00 0.000000000000E+00 0.000000000000E+00 0.000000000000E+00 0.000000000000E+00 0.000000000000E+00 0.000000000000E+00 0.000000000000E+00 0.000000000000E+00 0.000000000000E+00 0.000000000000E+00 0.000000000000E+00 0.000000000000E+00 0.000000000000E+00 0.000000000000E+00 0.000000000000E+00 0.000000000000E+00 0.000000000000E+00 0.000000000000E+00
 -2.061175605059E+01 -3.329366138428E+01 0.000000000000E+00 3.769265447067E+01 -1.964524982492E-01 0.000000000000E+00 -8.701009401917E-02 5.758654677601E-02 0.000000000000E+00 -1.817643133775E-02 5.392088388603E-01 0.000000000000E+00 -6.645161733427E-01 4.837046025252E-01 0.000000000000E+00 -1.242047796297E+03 -4.362038729089E+02 0.000000000000E+00 2.771065735468E-02 6.031097856687E-02 0.000000000000E+00 2.932454582794E-01 -4.200618146296E-01 0.000000000000E+00 2.056234437234E-01 -5.002205256650E-01 0.000000000000E+00 4.110851520935E-01 -3.453386718759E-01 0.000000000000E+00 -1.908368235941E+01 3.640786187214E+01 0.000000000000E+00 -1.573254280507E-01 -1.312461763417E+00 0.000000000000E+00 2.763210479563E+03
 3.642105420104E+01 6.012432934637E+01 0.000000000000E+00 -6.845379426931E+01 1.456081047766E+00 0.000000000000E+00 1.334767896537E-01 -5.812329408369E-03 0.000000000000E+00 -1.175358202693E-01 1.465987451177E-01 0.000000000000E+00 -2.349472516381E-01 -6.753854069132E-02 0.000000000000E+00 -4.400022352903E+02 -7.249253737972E+02 0.000000000000E+00 4.090486622616E-02 2.899974545989E-01 0.000000000000E+00 1.802769962590E-01 -3.139254875024E-01 0.000000000000E+00 5.809583016746E-02 1.037095063116E-01 0.000000000000E+00 2.074632043256E-01 -5.287625518142E-02 0.000000000000E+00 -3.282757203827E+01 5.664155324554E+01 0.000000000000E+00 5.102602507710E-01 -4.110599353774E-02 0.000000000000E+00 1.846490072095E+01 2.813377487849E+03
 0.000000000000E+00 0.000000000000E+00 0.000000000000E+00 0.000000000000E+00 0.000000000000E+00 0.000000000000E+00 0.000000000000E+00 0.000000000000E+00 0.000000000000E+00 0.000000000000E+00 0.000000000000E+00 0.000000000000E+00 0.000000000000E+00 0.000000000000E+00 0.000000000000E+00 0.000000000000E+00 0.000000000000E+00 0.000000000000E+00 0.000000000000E+00 0.000000000000E+00 0.000000000000E+00 0.000000000000E+00 0.000000000000E+00 0.000000000000E+00 0.000000000000E+00 0.000000000000E+00 0.000000000000E+00 0.000000000000E+00 0.000000000000E+00 0.000000000000E+00 0.000000000000E+00 0.000000000000E+00 0.000000000000E+00 0.000000000000E+00 0.000000000000E+00 0.000000000000E+00 0.000000000000E+00 0.000000000000E+00 0.000000000000E+00
 3.737166794545E-02 6.216906946222E-01 0.000000000000E+00 -1.933917958244E+01 -3.114930839181E+01 0.000000000000E+00 5.027308578077E-02 -5.540828691424E-03 0.000000000000E+00 5.546438787653E-02 1.202865282500E-01 0.000000000000E+00 -2.151313793716E-01 1.335065335752E-01 0.000000000000E+00 7.844807745287E-01 -4.043244467381E-01 0.000000000000E+00 -1.264177680288E-01 9.678609571360E-02 0.000000000000E+00 2.652514629052E-01 -8.126582755617E-02 0.000000000000E+00 4.607323153929E-02 -1.970743322542E-01 0.000000000000E+00 1.172716049748E-01 -1.169672077329E-01 0.000000000000E+00 3.860149778108E+01 -6.886984182557E+01 0.000000000000E+00 -2.316313726347E+01 4.009906019178E+01 0.000000000000E+00 3.924120772149E+01 6.722671668695E+01 0.000000000000E+00 2.765217387633E+03
 1.736656262142E-01 -5.847340270961E-01 0.000000000000E+00 3.424021788066E+01 5.489530286786E+01 0.000000000000E+00 7.036969961783E-02 8.772798087126E-02 0.000000000000E+00 5.874778678655E-02 -2.245779654307E-01 0.000000000000E+00 3.516820643232E-01 -1.715435373851E-01 0.000000000000E+00 -1.372521948226E+00 1.438942803692E-03 0.000000000000E+00 -5.558694986624E-02 -1.958395488902E-01 0.000000000000E+00 -3.415836844804E-01 2.892970149275E-01 0.000000000000E+00 -1.276580850409E-01 1.921876570972E-01 0.000000000000E+00 -2.308531051491E-01 1.518575341349E-01 0.000000000000E+00 -4.691181972507E-01 -2.474812409296E-01 0.000000000000E+00 -4.207246283661E+01 7.467497179891E+01 0.000000000000E+00 1.653901275601E+00 5.411001194650E-01 0.000000000000E+00 -3.900917576501E+01 2.764644166159E+03
 0.000000000000E+00 0.000000000000E+00 0.000000000000E+00 0.000000000000E+00 0.000000000000E+00 0.000000000000E+00 0.000000000000E+00 0.000000000000E+00 0.000000000000E+00 0.000000000000E+00 0.000000000000E+00 0.000000000000E+00 0.000000000000E+00 0.000000000000E+00 0.000000000000E+00 0.000000000000E+00 0.000000000000E+00 0.000000000000E+00 0.000000000000E+00 0.000000000000E+00 0.000000000000E+00 0.000000000000E+00 0.000000000000E+00 0.000000000000E+00 0.000000000000E+00 0.000000000000E+00 0.000000000000E+00 0.000000000000E+00 0.000000000000E+00 0.000000000000E+00 0.000000000000E+00 0.000000000000E+00 0.000000000000E+00 0.000000000000E+00 0.000000000000E+00 0.000000000000E+00 0.000000000000E+00 0.000000000000E+00 0.000000000000E+00 0.000000000000E+00 0.000000000000E+00 0.000000000000E+00
 -1.243443418485E-01 -9.280264682297E-01 0.000000000000E+00 2.340547048978E-01 -2.306703610679E-01 0.000000000000E+00 -2.609145254467E-02 -2.450833499168E-01 0.000000000000E+00 -2.344175743795E-01 -1.461281747040E-01 0.000000000000E+00 1.132096777215E-01 -2.480538833468E-01 0.000000000000E+00 -5.822479700939E-01 3.720012497012E-01 0.000000000000E+00 3.052995810212E-01 5.577971938474E-02 0.000000000000E+00 -3.557621827729E-02 -6.315704710664E-03 0.000000000000E+00 1.936453173049E-03 4.526408358776E-01 0.000000000000E+00 6.615607512735E-02 1.664291419546E-01 0.000000000000E+00 -1.227400889564E+03 4.366422420365E+02 0.000000000000E+00 -5.070486223401E+02 -1.888509018644E+01 0.000000000000E+00 1.218873882040E+00 -4.420580824907E-01 0.000000000000E+00 1.017183470735E+00 2.256354622253E-01 0.000000000000E+00 2.849784539595E+03
 1.525155855043E-01 -7.233488313218E-01 0.000000000000E+00 5.441889223668E-01 -5.816297623422E-01 0.000000000000E+00 4.418327151621E-02 -2.752104067099E-02 0.000000000000E+00 -1.924457745707E-02 -2.601970111838E-01 0.000000000000E+00 3.848029673206E-01 -2.288919232650E-01 0.000000000000E+00 -1.173821440942E+00 9.517924476830E-02 0.000000000000E+00 1.326847874390E-02 -1.332290837347E-01 0.000000000000E+00 -3.132994596649E-01 2.453078720028E-01 0.000000000000E+00 -1.223340602172E-01 2.985582681145E-01 0.000000000000E+00 -2.268144574029E-01 1.768468471545E-01 0.000000000000E+00 4.407251621469E+02 -7.393325798520E+02 0.000000000000E+00 -2.891424523835E+01 -1.540627626111E+03 0.000000000000E+00 1.479950418883E+00 3.460756377227E-01 0.000000000000E+00 1.085235568958E+00 -1.269987897028E+00 0.000000000000E+00 1.801952627517E+01 2.883508563763E+03
 0.000000000000E+00 0.000000000000E+00 0.000000000000E+00 0.000000000000E+00 0.000000000000E+00 0.000000000000E+00 0.000000000000E+00 0.000000000000E+00 0.000000000000E+00 0.000000000000E+00 0.000000000000E+00 0.000000000000E+00 0.000000000000E+00 0.000000000000E+00 0.000000000000E+00 0.000000000000E+00 0.000000000000E+00 0.000000000000E+00 0.000000000000E+00 0.000000000000E+00 0.000000000000E+00 0.000000000000E+00 0.000000000000E+00 0.000000000000E+00 0.000000000000E+00 0.000000000000E+00 0.000000000000E+00 0.000000000000E+00 0.000000000000E+00 0.000000000000E+00 0.000000000000E+00 0.000000000000E+00 0.000000000000E+00 0.000000000000E+00 0.000000000000E+00 0.000000000000E+00 0.000000000000E+00 0.000000000000E+00 0.000000000000E+00 0.000000000000E+00 0.000000000000E+00 0.000000000000E+00 0.000000000000E+00 0.000000000000E+00 0.000000000000E+00
 4.000230719939E-02 2.777331478673E-01 0.000000000000E+00 7.121933910879E-03 5.604105824310E-01 0.000000000000E+00 1.190003474375E-02 -2.265694237379E-02 0.000000000000E+00 1.969209976052E-02 4.678080005331E-02 0.000000000000E+00 -2.032024826043E-01 5.814800787421E-02 0.000000000000E+00 -1.944162179281E+01 3.488370422351E+01 0.000000000000E+00 -2.991711676271E-02 8.393400930226E-02 0.000000000000E+00 1.738111665735E-01 -1.287273569775E-01 0.000000000000E+00 4.795377020909E-02 -4.157127509350E-02 0.000000000000E+00 1.833448683443E-01 -1.994085162327E-02 0.000000000000E+00 -1.225204474376E+03 -4.220605675722E+02 0.000000000000E+00 -1.464283466244E-01 6.482596834055E-04 0.000000000000E+00 -1.167713294887E+03 4.266149307306E+02 0.000000000000E+00 -4.723114610307E+02 -1.104951421587E+01 0.000000000000E+00 -1.955941017601E+01 -3.376296859813E+01 0.000000000000E+00 2.749219735058E+03
 -1.108230387990E-01 2.264643714177E-01 0.000000000000E+00 2.949798995889E-01 -6.588262850947E-02 0.000000000000E+00 2.162513183104E-02 -2.456633648727E-02 0.000000000000E+00 6.824926141346E-02 -1.751421992985E-02 0.000000000000E+00 1.454126361881E-01 -4.919250264965E-02 0.000000000000E+00 -3.312340750220E+01 5.719549093392E+01 0.000000000000E+00 -1.978947824834E-02 -5.901192805450E-02 0.000000000000E+00 -1.351724442807E-02 1.045716803588E-01 0.000000000000E+00 -1.097081116565E-02 -1.246299453740E-02 0.000000000000E+00 -1.455976462201E-01 -9.425148459364E-03 0.000000000000E+00 -4.259216712721E+02 -7.102971189997E+02 0.000000000000E+00 9.161876690664E-02 2.838509405961E-01 0.000000000000E+00 4.283172211143E+02 -7.216333262807E+02 0.000000000000E+00 -1.344181613305E+00 -1.497775562399E+03 0.000000000000E+00 3.488610639998E+01 5.933225760210E+01 0.000000000000E+00 -5.716550964667E-01 2.813350893533E+03
 0.000000000000E+00 0.000000000000E+00 0.000000000000E+00 0.000000000000E+00 0.000000000000E+00 0.000000000000E+00 0.000000000000E+00 0.000000000000E+00 0.000000000000E+00 0.000000000000E+00 0.000000000000E+00 0.000000000000E+00 0.000000000000E+00 0.000000000000E+00 0.000000000000E+00 0.000000000000E+00 0.000000000000E+00 0.000000000000E+00 0.000000000000E+00 0.000000000000E+00 0.000000000000E+00 0.000000000000E+00 0.000000000000E+00 0.000000000000E+00 0.000000000000E+00 0.000000000000E+00 0.000000000000E+00 0.000000000000E+00 0.000000000000E+00 0.000000000000E+00 0.000000000000E+00 0.000000000000E+00 0.000000000000E+00 0.000000000000E+00 0.000000000000E+00 0.000000000000E+00 0.000000000000E+00 0.000000000000E+00 0.000000000000E+00 0.000000000000E+00 0.000000000000E+00 0.000000000000E+00 0.000000000000E+00 0.000000000000E+00 0.000000000000E+00 0.000000000000E+00 0.000000000000E+00 0.000000000000E+00
 7.143514366458E-02 -8.267419825131E-01 0.000000000000E+00 5.794137892043E-01 -4.587593642643E-01 0.000000000000E+00 -3.013726220108E-02 -6.506940341435E-02 0.000000000000E+00 -7.569941672072E-02 -2.014931212105E-01 0.000000000000E+00 2.575492742575E-01 -2.374767439436E-01 0.000000000000E+00 -9.691816038185E-01 2.273525779501E-01 0.000000000000E+00 1.342370830392E-01 -6.609008112990E-02 0.000000000000E+00 -2.516987477857E-01 1.569252915034E-01 0.000000000000E+00 -7.238199806483E-02 3.494223826833E-01 0.000000000000E+00 -1.070400644458E-01 1.980451325742E-01 0.000000000000E+00 5.341439455227E-01 -1.532487163228E+00 0.000000000000E+00 -1.510819146643E+03 -5.242797522802E+02 0.000000000000E+00 1.260337904252E+00 -4.335188923398E-01 0.000000000000E+00 -1.271853843453E+03 4.373105833940E+02 0.000000000000E+00 4.699701887289E+01 -2.079120349813E+00 0.000000000000E+00 4.020849504770E+01 1.281552213519E-01 0.000000000000E+00 3.073017143408E+03
 -1.390287459264E-01 2.733746838129E-01 0.000000000000E+00 -1.963850717499E-01 2.363071960568E-01 0.000000000000E+00 -5.817014251503E-02 -2.929736820175E-02 0.000000000000E+00 -2.818181167243E-02 1.212130347396E-01 0.000000000000E+00 -2.345677012815E-01 1.240849738349E-01 0.000000000000E+00 6.164524251067E-01 -2.409950893035E-02 0.000000000000E+00 3.230230128581E-02 7.094482916835E-02 0.000000000000E+00 1.735126379703E-01 -1.489870853519E-01 0.000000000000E+00 6.685138579209E-02 -1.122647567660E-01 0.000000000000E+00 1.697539208220E-01 -6.758995444815E-02 0.000000000000E+00 1.670939135309E-01 1.483276120879E-01 0.000000000000E+00 -5.343729067530E+02 -8.624541611268E+02 0.000000000000E+00 -5.476022099528E-01 -4.862156505797E-01 0.000000000000E+00 4.231274133498E+02 -7.315786997380E+02 0.000000000000E+00 -8.633500854899E+01 3.103685555937E+00 0.000000000000E+00 7.181052854874E+01 -3.457919097888E-01 0.000000000000E+00 8.813196557506E+01 2.541431027224E+03
 0.000000000000E+00 0.000000000000E+00 0.000000000000E+00 0.000000000000E+00 0.000000000000E+00 0.000000000000E+00 0.000000000000E+00 0.000000000000E+00 0.000000000000E+00 0.000000000000E+00 0.000000000000E+00 0.000000000000E+00 0.000000000000E+00 0.000000000000E+00 0.000000000000E+00 0.000000000000E+00 0.000000000000E+00 0.000000000000E+00 0.000000000000E+00 0.000000000000E+00 0.000000000000E+00 0.000000000000E+00 0.000000000000E+00 0.000000000000E+00 0.000000000000E+00 0.000000000000E+00 0.000000000000E+00 0.000000000000E+00 0.000000000000E+00 0.000000000000E+00 0.000000000000E+00 0.000000000000E+00 0.000000000000E+00 0.000000000000E+00 0.000000000000E+00 0.000000000000E+00 0.000000000000E+00 0.000000000000E+00 0.000000000000E+00 0.000000000000E+00 0.000000000000E+00 0.000000000000E+00 0.000000000000E+00 0.000000000000E+00 0.000000000000E+00 0.000000000000E+00 0.000000000000E+00 0.000000000000E+00 0.000000000000E+00 0.000000000000E+00 0.000000000000E+00
 -1.127344711418E-01 -4.069126293001E-01 0.000000000000E+00 -1.224250919716E+03 4.469353418577E+02 0.000000000000E+00 3.369743495694E-02 4.832312589627E-02 0.000000000000E+00 8.493071443356E-02 -7.606457799477E-02 0.000000000000E+00 1.292492525990E-01 -1.264627547989E-01 0.000000000000E+00 3.984110131049E+01 -9.933936286389E-02 0.000000000000E+00 4.607613565183E-02 -1.886829212084E-01 0.000000000000E+00 -2.028698923531E+01 3.583267336346E+01 0.000000000000E+00 -3.686883478148E-02 1.589983249551E-01 0.000000000000E+00 -3.470869329720E-02 1.821202724061E-01 0.000000000000E+00 6.345235038910E-02 -5.301955558565E-01 0.000000000000E+00 1.714708811320E-01 3.631905748049E-01 0.000000000000E+00 1.492335903339E+00 5.837952616143E-02 0.000000000000E+00 -1.138084780610E+03 -3.895971792427E+02 0.000000000000E+00 -4.440304008058E-01 -3.273853292050E-01 0.000000000000E+00 3.638995730761E+01 -4.519853520565E-01 0.000000000000E+00 -1.851666620908E+01 -3.241696195984E+01 0.000000000000E+00 2.728851344765E+03
 -6.706553230598E-02 -2.673701828052E-01 0.000000000000E+00 4.568540833668E+02 -7.456745370908E+02 0.000000000000E+00 -1.096282850518E-01 -4.213174273671E-02 0.000000000000E+00 -8.470641480813E-02 5.270107519007E-02 0.000000000000E+00 1.343746014162E-01 -5.064496329942E-02 0.000000000000E+00 6.683300945138E+01 -2.764098001703E-01 0.000000000000E+00 2.068649621690E-01 8.662682082449E-02 0.000000000000E+00 -3.353682869499E+01 5.891241951762E+01 0.000000000000E+00 1.206258816069E-02 4.630303802308E-02 0.000000000000E+00 -1.696185780313E-01 -3.334192692577E-02 0.000000000000E+00 2.361443170996E-02 -3.069010886096E-01 0.000000000000E+00 1.489140656424E-02 1.416885778980E-01 0.000000000000E+00 2.142303531464E-01 -6.153338388049E-01 0.000000000000E+00 -3.882387248461E+02 -6.697178398622E+02 0.000000000000E+00 -2.904256735767E-01 -9.319035546252E-02 0.000000000000E+00 -6.497287870145E+01 4.749001860638E-01 0.000000000000E+00 3.173023258412E+01 5.755798614508E+01 0.000000000000E+00 -1.236353675630E+01 2.825526303715E+03
 0.000000000000E+00 0.000000000000E+00 0.000000000000E+00 0.000000000000E+00 0.000000000000E+00 0.000000000000E+00 0.000000000000E+00 0.000000000000E+00 0.000000000000E+00 0.000000000000E+00 0.000000000000E+00 0.000000000000E+00 0.000000000000E+00 0.000000000000E+00 0.000000000000E+00 0.000000000000E+00 0.000000000000E+00 0.000000000000E+00 0.000000000000E+00 0.000000000000E+00 0.000000000000E+00 0.000000000000E+00 0.000000000000E+00 0.000000000000E+00 0.000000000000E+00 0.000000000000E+00 0.000000000000E+00 0.000000000000E+00 0.000000000000E+00 0.000000000000E+00 0.000000000000E+00 0.000000000000E+00 0.000000000000E+00 0.000000000000E+00 0.000000000000E+00 0.000000000000E+00 0.000000000000E+00 0.000000000000E+00 0.000000000000E+00 0.000000000000E+00 0.000000000000E+00 0.000000000000E+00 0.000000000000E+00 0.000000000000E+00 0.000000000000E+00 0.000000000000E+00 0.000000000000E+00 0.000000000000E+00 0.000000000000E+00 0.000000000000E+00 0.000000000000E+00 0.000000000000E+00 0.000000000000E+00 0.000000000000E+00