#BIOSYM hessian 1
@Type: Hessian Update
@Units
 distance: 	A
 energy: 	Kcal/Mol
#header
@natom 67

#label
C1      C2      C3      C4      C5      C6      C7      C8      C9      C10     C11     C12     C13     C14     C15     C16     C17     C18     C19     C20     C21     C22     C23     H24     C25     C26     C27     C28     C29     C30     C31     C32     C33     C34     C35     C36     C37     C38     C39     C40     C41     C42     C43     C44     C45     C46     C47     C48     C49     H50     H51     H52     H53     H54     H55     H56     H57     H58     H59     H60     H61     H62     H63     H64     H65     H66     O67

#element
C  C  C  C  C  C  C  C  C  C  C  C  C  C  C  C  C  C  C  C  C  C  C  H  C  C  C  C  C  C  C  C  C  C  C  C  C  C  C  C  C  C  C  C  C  C  C  C  C  H  H  H  H  H  H  H  H  H  H  H  H  H  H  H  H  H  O 

#matrix
201
 2.784303308281E+03
 -2.327688180737E+01 2.816046524874E+03
 3.481855830346E+01 -1.396219595567E+01 1.935120740717E+02
 3.979280561883E+01 6.704150433564E+01 -1.809360236519E+00 2.790621216729E+03
 -2.139077817806E-01 -2.048195199586E-01 1.886619973946E-01 -2.392086707062E+01 2.768731582446E+03
 4.972481980777E-02 7.984070647567E-01 8.553866671889E+00 9.821174088314E+00 -4.562804264367E+01 1.919803495079E+02
 -1.893198830701E+01 3.644982473802E+01 -5.920360975533E-01 2.938987380117E-01 -1.571215770550E+00 3.012255269802E-01 2.781673766605E+03
 -3.328669002712E+01 5.982106710258E+01 -2.049663945138E+00 2.896534498751E-01 -2.610064949925E-01 -9.362673207923E-02 -2.317931894807E+01 2.829710961887E+03
 7.458259809509E-01 2.222943734566E+00 9.644049576380E+00 -6.756052780948E-02 1.826356508619E-01 -4.854550075747E-01 4.774305965791E+01 -2.611990721137E+01 2.103198905289E+02
 3.856895053144E+01 -6.738311705775E+01 3.716569531577E+00 -1.918049457737E+01 3.390234773388E+01 -9.036125607879E-01 3.579624785721E+01 7.203892049109E+01 -5.845295027954E+00 2.778009366726E+03
 1.485268645290E-01 6.412569689932E-01 -4.832237622972E-01 -3.332628382796E+01 5.837648940318E+01 -9.481893664119E-01 -3.056954731770E+00 -9.459411335188E-01 -1.508549931476E+00 -2.577194651919E+01 2.837397068908E+03
 1.717393486652E+00 -1.166936804046E+00 9.125862217476E+00 4.266527453103E-01 -8.649021470827E-01 8.772281647653E+00 1.046200822771E+00 2.133034687073E+00 1.379497171253E+01 2.712599320634E+00 -8.165410242305E+01 2.014668539230E+02
 2.807073901190E-01 1.942834388365E+00 3.855151076953E-01 6.742958462950E-01 -2.791028039125E+00 3.940554945648E-01 2.830500620132E+01 -7.466362077952E+01 4.778772043868E+00 -3.058392694768E+01 3.190356363572E+01 -2.898077890440E+00 2.617420675489E+03
 -9.819894958981E-01 -1.655111697006E+00 7.109767119719E-02 -7.085074878215E-01 2.440266116630E+00 -4.017522119242E-01 1.391126409863E+01 3.176033263295E+00 2.305560303311E+00 -2.828912977156E+01 6.840649407499E+01 -8.602867343592E-01 -1.982550499707E+02 2.868046232874E+03
 1.723999411170E-01 2.066774830420E-01 1.637900703011E-02 -8.088240441781E-01 4.820141433961E-01 7.867387494603E-01 1.481144790818E+00 -1.097803299895E+00 8.529439830708E+00 1.210325506502E+00 -2.006223941654E+00 6.906529462951E+00 3.790509387325E+01 -1.358506745374E+02 1.752828047739E+02
 -1.230801320508E+03 4.473202158552E+02 -1.783917326978E+01 -4.637822222979E+02 -6.164991253304E+00 -3.197317270961E+00 3.161543446930E-01 -9.972830920439E-02 -1.545837298969E-01 7.862127550543E-02 5.245785418599E-01 -2.775474341227E-02 5.980877825970E-01 -1.865652419913E-01 6.783329320211E-02 2.822138085966E+03
 4.416866811201E+02 -7.403839336619E+02 1.098237730705E+01 -4.977293478447E+00 -1.432838002194E+03 2.089737949702E+01 3.502385673531E-01 2.364663392065E-01 -3.744512777878E-01 6.307918190287E-01 3.013187555727E-02 -7.778887211692E-01 8.962932879070E-01 -8.903036232126E-01 -8.874516923237E-01 -4.179690941827E+00 2.780293119176E+03
 -2.053465086417E+01 1.162703905887E+01 -8.373066109155E+01 -2.052690824972E+00 1.949778248787E+01 -8.091080764275E+01 3.857072974577E-01 -8.156758743531E-02 4.007463749157E+00 2.239913099716E-01 8.522260045804E-01 -1.008065357947E+01 6.256203985169E-01 -5.610712959153E-01 1.425532750869E+00 2.775442597774E+01 -3.391900397567E+01 1.932970414733E+02
 -1.192824441531E+03 -4.131286497704E+02 -1.504629328230E+01 -5.007118280914E-01 1.141620473480E-01 2.645817410935E-01 -1.266225725234E+03 4.428635758108E+02 -3.507461755226E+01 -4.807659413867E+02 -6.155559046949E+00 -6.759149902651E+00 1.311019411566E-01 1.408092958827E+00 2.000998538000E+00 -1.920684899430E+01 -3.355368649296E+01 5.470316848760E-01 2.820157203924E+03
 -4.128458278473E+02 -7.003216994372E+02 3.782320834370E+00 4.234948976750E-01 8.053925402694E-01 -4.946734890731E-01 4.488568183455E+02 -7.421367110172E+02 2.266431698270E+01 -6.546516224662E+00 -1.510885201334E+03 4.380125146718E+01 2.762564206408E+00 -4.483064506094E+00 -2.280170920512E+00 3.374357773731E+01 5.850753329607E+01 -3.868402867442E-01 -2.755064332285E+01 2.837458740421E+03
 -1.105604542644E+01 2.585000114609E+00 -8.192117613558E+01 -9.802674392180E-02 -4.368108601028E-02 -8.735715843256E+00 -4.207556714931E+01 2.515635516977E+01 -8.625454326820E+01 -2.226416911032E+00 4.148391919571E+01 -8.663035512157E+01 1.597519260598E+00 -6.495865410941E-02 -7.717270337223E+00 -3.509087984911E-01 -7.588481927742E-01 9.379673619874E+00 5.486140898359E+01 -6.895597645090E+01 1.997327686935E+02
 -1.940333215419E-01 -1.813297154211E-01 5.227363835363E-01 -1.219702592273E+03 -4.200269035947E+02 4.585041055809E+00 2.698470268429E+00 -2.001897812324E-01 1.443440976641E+00 -1.225624733415E+03 4.403642629096E+02 -1.434754605305E+01 4.612021323976E+00 -3.258360024221E+00 7.747155676236E-01 3.699631389226E+01 -2.592204388914E-01 -6.539249643698E-01 4.167818828134E+01 -7.608311929749E-01 2.818695140816E-01 2.807287462372E+03
 -9.617576400991E-02 8.728272247257E-02 6.570636337254E-01 -4.229051360804E+02 -7.069028810751E+02 1.204803920184E+01 -2.629023818821E-01 3.335586139392E-02 -5.550916995002E-01 4.383905514871E+02 -7.339839206728E+02 1.914099479544E+01 -7.152241085237E-01 1.548785085709E-01 -2.207698112083E-02 -6.656694145067E+01 4.305069225357E-01 -1.214716563129E-01 7.027521372172E+01 -7.059323968103E-01 -8.133866856547E-02 -7.460809745212E-01 2.806502994725E+03
 -5.590809137857E-01 -4.195695629654E-01 -9.129120229853E+00 6.505835581819E+00 1.194529605480E+01 -8.235439262594E+01 3.126290021945E-01 3.256917012647E-02 5.550218849090E+00 -1.514697503854E+01 2.101847419101E+01 -8.414727934721E+01 7.114161146304E-01 -3.824919246486E-01 6.303985375656E+00 8.553723525382E-01 5.458086575325E-01 9.222353696085E+00 -1.775160464819E+00 -3.324120848777E-01 1.030822162438E+01 1.030048005629E+01 -6.667951523221E+01 1.970665666121E+02
 -2.234466976147E+00 -6.044655207240E+00 -1.269522965775E+00 -2.651416645262E+00 9.102595577655E+00 -1.375718951720E+00 -1.131620195105E+03 -4.080886070698E+02 -3.293525077243E+00 2.889683995177E+01 1.835106558755E+01 3.428367026725E+00 -4.450384456116E+02 -7.286747862605E+01 -1.852384606275E+01 -1.060197235142E+00 -3.613891682880E+00 -2.062030020902E+00 -1.776609752983E+01 -4.753792284065E+01 -3.023549438742E+00 -1.309118347325E+01 1.777259093675E+00 -2.446707106102E+00 2.514565014207E+03
 1.208508642846E+00 2.603214671019E+00 4.689489687465E-01 1.300509050279E-01 -2.941113674827E+00 4.157004765465E-01 -4.366840228157E+02 -7.275936719816E+02 9.605159715666E+00 -9.180090381920E+00 -8.075481152279E+00 -2.406410539973E-01 -1.411736390703E+01 -1.607891322704E+03 8.715338926535E+01 9.748894442487E-01 3.223911809160E-01 5.172847635914E-01 3.447893714893E+01 6.451637815925E+01 8.384111949058E-02 3.159669175929E+00 9.976499075470E-01 7.925096216386E-01 7.535215292200E+01 2.920689172152E+03
 -9.286458994114E-01 -1.087642379530E+00 4.339891767779E+00 1.435237790746E-01 -7.196557791635E-02 -3.296694280298E-01 -2.440500837497E+00 2.975575436017E+00 -9.972334219152E+01 3.345898482676E+00 -7.650013784670E-01 -9.162155377928E+00 -4.900002218686E+00 9.465592101065E+01 -9.519996786940E+01 -2.598606971717E-02 7.904099871282E-01 -5.375000955594E-01 -3.684844445755E+00 3.942594065204E-01 8.763186015245E+00 -2.649409134566E+00 7.047860214600E-01 -6.964849739542E-01 5.959156897593E+01 -2.119992510542E+02 3.404632483896E+02
 -6.284018562631E-01 -1.531722165803E+00 -8.779442451594E-01 -3.285059393962E-01 2.051469832622E+00 -2.366831589173E-01 1.319723971676E+01 1.394754761397E+00 3.175694365864E+00 -1.184258573606E+03 -4.124884439275E+02 1.705690512562E+01 -1.312753314679E+03 4.805897881312E+02 -2.845792213099E+01 -4.005901858778E-01 -4.672115238612E-01 -5.409278443951E-01 3.928852375544E+01 -3.489522862736E+00 -2.764361699808E+00 -2.313225871418E+01 -3.227490263808E+01 4.178936302584E-01 -1.869803432800E+01 1.737025247771E+01 -3.615697447759E+00 2.862455657946E+03
 4.289584945283E-01 5.333866586790E-01 -1.135017079552E-01 4.880232475181E-01 -1.070165173945E+00 2.339932206003E-01 -7.941717805067E+00 -1.689988505211E+00 5.612117299966E-01 -4.131979072839E+02 -7.153672221454E+02 2.054782958982E+01 4.829122531975E+02 -8.056013471196E+02 3.242952398021E+01 7.324473444597E-03 4.151119063807E-01 1.070512798731E-01 -6.898542453886E+01 2.956873062624E+00 5.218498403624E-01 3.715496049923E+01 5.729815256807E+01 -2.087917658233E+00 1.220028483451E+02 -7.500939480844E+00 2.839885896421E+00 -8.635175050350E+01 2.842399566547E+03
 -7.579981387624E-01 -3.205637358889E-01 4.565097424067E+00 -3.788168658156E-01 1.008123500113E-03 5.037081647085E+00 6.018244591933E-01 3.598905938771E-01 -1.580866669062E+01 1.499232758221E+01 2.061348845634E+01 -8.879993267692E+01 -1.914294482600E+01 2.681531609009E+01 -7.485373865613E+01 2.015372118295E-01 -9.471284507701E-02 8.770672532417E-01 4.315880846838E+00 -8.574525693033E-01 1.082125583921E+01 -1.738311623874E+00 -1.417949010798E-01 8.294331965927E+00 -1.341498376212E+01 2.340156231807E+00 1.023761456425E+01 8.348444029789E+00 -8.495735939568E+01 1.910302185197E+02
 1.813755299272E-02 -6.842967055109E-03 1.189763130515E-02 2.578153375168E-02 4.216550158508E-02 -7.078084443089E-02 2.740721806490E-01 3.751678897423E-02 1.365442589672E-01 1.274549578375E-01 5.487327638379E-02 7.325851665629E-02 3.923782526594E-01 -2.912967486053E-01 -2.400747073364E-01 -5.611022707393E-02 -4.998107462537E-02 -2.727141981269E-01 -7.538608304360E-02 -3.284839294009E-02 -2.163238969572E-01 -8.518688781212E-02 3.728310854019E-02 -7.209677838948E-02 -1.246577979318E+00 1.640438779849E-01 -1.475440663201E-01 -2.629025666185E-01 2.164571562390E-01 -9.149632580931E-02 2.810477092882E+03
 1.270399556207E-02 4.820548488915E-02 -8.530583861421E-03 -1.912017046626E-02 -5.989642411685E-03 1.112210680239E-01 -8.472225863684E-02 2.250188668002E-02 -1.571203213643E-01 -3.398881598498E-02 -3.153221846527E-02 2.046141929273E-01 -1.287459759589E-01 6.825017952647E-02 1.200754588457E-01 8.203161397273E-02 -9.254149578372E-02 7.973365090707E-02 2.232213325317E-02 -8.448045805806E-02 -1.660652023840E-01 1.888459702870E-03 3.310149636834E-02 -5.518136742706E-03 7.391787693056E-01 2.812912531537E-01 2.260058347152E-02 5.830516196857E-02 5.027778106471E-02 -2.525755480375E-04 2.298095291962E+00 2.800066561895E+03
 1.167755826029E-01 7.200360494571E-02 -1.778916961653E-02 4.078882342443E-02 9.407647992942E-03 -1.208239789426E-01 -9.493916282204E-02 3.464910738013E-02 9.817252919306E-01 -1.170700469689E-01 -1.069458434167E-01 8.541346633316E-01 -2.791184983974E-01 3.286404871544E-01 -7.399452074392E-01 4.061161710702E-03 7.078375652036E-02 4.297627541762E+00 -2.323177525283E-01 2.237306574280E-01 -1.827674000611E-01 8.926108678738E-02 -8.405383572946E-02 -3.161408968979E-02 9.638935677990E-01 -1.700642184570E-01 1.745114269210E-01 2.898469485771E-01 -1.905772535451E-01 -9.583149126865E-01 7.482875963511E+00 -2.373183001259E+01 1.939786926141E+02
 1.456092472109E-02 5.696090902438E-03 7.829779243688E-02 2.864689828832E-02 -3.530498172035E-02 -9.536666994051E-02 6.562763189711E-02 -3.015042456073E-02 1.774470420329E-01 -1.559359417002E-02 -5.160999321939E-02 4.059724963321E-02 -2.080785527830E-02 5.586519841984E-02 -4.190241529790E-01 -2.609259066028E-02 7.766233009144E-02 -4.643782949400E-02 -6.214082956488E-02 1.128728540893E-01 -1.166729710814E-01 -1.965706609071E-02 1.921176195346E-02 -1.894432361301E-01 -1.792422868747E-01 -3.297435167637E-01 1.259242498222E-01 7.707696884505E-02 -4.378462963924E-02 -1.148515545247E-01 4.162555818123E+01 7.169345131868E+01 -7.956291136840E-01 2.782954900510E+03
 1.368677347878E-02 1.285959306138E-02 2.526875961633E-03 9.000997126577E-03 -9.862016088274E-03 -5.404727453129E-03 -7.280016564555E-02 -6.368240816873E-02 -1.501310185441E-02 -4.319720047390E-02 -4.930903265117E-02 3.362271616370E-02 -9.521533071336E-02 1.698213776675E-01 3.182705987797E-02 -2.447328317224E-03 1.495188403984E-02 -2.827603798904E-02 -3.794675809381E-02 2.958382509722E-02 -1.947464118361E-02 7.295216230197E-03 -2.781630141572E-03 8.200633247410E-03 5.433701601081E-01 -2.589507596916E-01 3.117888175200E-04 1.073877914160E-01 -3.573135380011E-02 -3.065521823786E-02 -9.944053095056E-01 -1.760065088650E+00 8.744097920358E-02 2.778510393713E+02 2.858881738416E+03
 -2.179363150017E-01 -3.126859376238E-01 2.866249078959E-02 -1.905365086751E-01 1.613676675261E-01 4.583262554601E-01 5.106937218721E-01 -2.703871873324E-01 -1.857674359248E+00 4.843042128377E-01 5.123885303920E-01 -2.275560956989E+00 1.418725877187E+00 -1.213544880347E+00 2.978774110396E+00 -8.982593591221E-02 -4.796776874211E-02 8.200317057645E-01 5.858992652039E-01 -5.952061728391E-01 1.343360783629E+00 -1.718489621890E-01 -3.285422578349E-02 7.886437428629E-01 -4.477986900721E+00 9.762452528575E-01 -1.025034285096E+00 -1.286956821374E+00 6.266156225667E-01 2.133172391515E+00 -8.123039421841E-02 1.858897127666E-01 1.038872437947E+01 4.098886957062E+00 -2.902085926009E+01 1.511330544665E+02
 -2.016652756246E+01 -3.428233124741E+01 1.660562651973E-01 3.827815115632E+01 -2.648874834335E-01 1.027672590942E+00 -4.835359022100E-01 1.692375518261E-02 -2.664415100864E-01 -2.702420776362E-01 -2.884811292335E-01 -9.035333609196E-03 -1.065625059939E+00 7.375502107567E-01 2.869551688067E-01 -1.246922478531E+03 -4.334881896773E+02 -6.038423086219E+00 -1.692329109346E-01 7.022117097543E-02 -6.676368515244E-01 1.744677113586E-01 2.327603281428E-02 -1.827437249832E-02 3.363669896597E+00 -7.929916501607E-01 -1.443137612620E-01 7.949810272004E-01 -2.791771320542E-01 2.379447314116E-01 -1.932683974467E+01 3.410856946343E+01 -3.475928141993E-01 -6.978252065379E-03 9.813430483134E-03 3.554083583796E-02 2.777014934582E+03
 3.585966658272E+01 6.092141879070E+01 1.783814616991E-01 -6.783546409593E+01 1.835301381033E-01 -7.408539906173E-01 -4.087670403349E-01 -2.055408982322E-01 -6.285398636209E-02 -2.885735174034E-01 -2.317288220869E-01 2.051322915675E-01 -8.756470868921E-01 7.972286484677E-01 6.660559434556E-01 -4.380652608012E+02 -7.236979691854E+02 2.027039558359E+00 7.253664144758E-02 -1.081363311288E-01 1.409971896944E-01 1.221314863995E-01 2.370766563163E-02 1.583298954405E-01 3.334426476087E+00 -3.018913696221E-01 1.652921458848E-02 5.845692837570E-01 -3.730498414589E-01 1.001824961540E-01 -3.238871703682E+01 5.720913565218E+01 -6.700969296429E-01 -6.199190447106E-02 -1.153721514127E-02 3.626199377155E-02 1.766251992166E+01 2.805127730180E+03
 -3.687541061157E-01 -1.135727533394E+00 9.895640531906E+00 1.710722122279E+00 -3.669151507846E-02 8.987583298790E+00 1.825022203761E-01 -9.457415480914E-02 7.843482421857E-01 -4.997409172871E-02 2.608649854397E-01 5.067078861103E-01 6.071132667304E-02 -9.121889984039E-02 -2.260603612875E-01 -7.460736882735E+00 2.548449286398E+00 -8.313307304313E+01 -6.210038167172E-02 1.717688702566E-01 4.636723046504E+00 -1.289651007792E-01 -1.996841666365E-01 4.631952022974E+00 -4.770343154143E-01 3.504465915184E-01 -2.874070013199E-02 1.265597389941E-02 -9.510329328045E-02 -6.671106996634E-01 2.313737264576E-01 -4.581634628868E-01 8.846102621095E+00 5.665660929824E-02 7.155478193863E-02 -1.590972683642E-01 1.768458619993E+01 -1.454944682054E+01 1.914206403304E+02
 -1.189380520747E-02 -6.190829504321E-02 -1.213718831532E-01 -1.884053907334E+01 -3.152617987173E+01 7.489984271475E-02 2.752924137525E-01 -9.877760769523E-02 3.460664305959E-01 1.024716028721E-01 3.070964321616E-02 -3.458530273194E-02 3.564244587510E-01 -1.797383970953E-01 -5.082175561718E-01 -1.941929573746E-01 1.989175760937E-01 2.484824921574E-02 -1.047630010781E-01 1.503949753663E-01 3.492928392405E-02 -5.789283547076E-02 -1.082079788391E-02 -1.270222143610E-01 -1.731148483989E+00 -2.442806586422E-01 9.471271477930E-02 -1.786164576300E-01 2.980663444481E-02 -2.117803167732E-01 3.937015613232E+01 -6.932647237624E+01 1.029207282651E+00 -2.294045241506E+01 4.027643187738E+01 -5.923276218719E-01 4.004960759328E+01 6.691078204241E+01 -9.493837255602E-01 2.772273309853E+03
 -2.418292308003E-03 -8.644805850832E-02 3.499500146892E-01 3.334628841406E+01 5.583127540242E+01 -2.979740016800E-01 5.431297845488E-01 -2.968585031738E-02 8.709728996793E-02 2.652904887984E-01 1.211763903492E-01 -1.892200524348E-02 7.778916837986E-01 -7.456747943542E-01 1.599868329184E-01 2.402114091543E-01 2.093075485396E-01 6.365720430117E-03 -1.764366506220E-02 -5.180034397581E-02 -1.781033422969E-01 -1.569576262848E-01 8.716576397989E-03 -8.187417719441E-02 -2.674620691830E+00 6.297504858576E-01 -2.879002062776E-01 -5.998821637454E-01 4.654517662029E-01 6.919047903026E-03 -3.431173840316E-02 8.136262540712E-02 4.895553871607E-02 -4.223194795319E+01 7.397236397529E+01 -8.428868240552E-01 -9.251010281830E-02 -2.161907198404E-01 6.696822564329E-02 -3.906746910052E+01 2.757016714415E+03
 2.155403507539E-01 -1.783666969398E-03 1.529729798191E-02 -4.192874076653E-01 -1.290622147756E+00 8.225594705008E+00 -9.436290047905E-02 -4.539657583685E-02 -1.155646442820E-01 -1.057917437328E-01 -2.195709771631E-01 -1.318218497415E-01 -5.503175410777E-01 -3.067494852617E-02 1.815508806356E-01 -1.990863052121E-01 -3.961798634267E-01 -8.819365614180E+00 -2.668051327449E-02 1.596056499773E-01 9.261083852844E-02 3.796712393703E-01 2.776647819793E-01 4.311351723339E+00 8.181709672180E-01 3.000343123803E-01 2.140846893034E-01 4.509727511574E-01 -1.206448285614E-01 1.665883138579E-01 1.432611362688E-01 -3.771287577284E-01 9.553141117397E+00 4.259599851687E-01 -5.446295804054E-01 1.258529707559E+01 -1.061556481231E-01 6.099503734032E-01 8.856785501721E+00 6.217312731723E+00 -3.176607890106E+01 1.851564164847E+02
 -1.130665087651E-02 6.575782543583E-03 -8.135483323984E-02 -1.904127592695E-02 3.181064873241E-03 5.106083921433E-02 -1.763142675673E-01 3.619335511119E-03 -5.704508540796E-02 -7.710110561183E-02 -2.244792832377E-02 5.433010208262E-02 -2.570937559403E-01 1.541488289642E-01 1.594599519026E-01 4.396882218062E-02 -3.637228610425E-02 4.797425491361E-02 2.863486836471E-02 -1.498861737262E-02 6.599355943959E-02 6.752820702183E-02 -2.860781980273E-02 1.142307874579E-01 8.404458606119E-01 2.064450356432E-02 7.625972373300E-02 1.594460028665E-01 -1.298017353431E-01 -1.153210307660E-03 -1.234382203092E+03 4.339744581474E+02 -7.228516585170E+00 -5.070838982627E+02 -1.675481480464E+01 -7.785525993435E-01 -3.632491210199E-02 1.008619732993E-02 -1.588317487493E-01 5.237753032604E-02 1.289281123752E-01 -4.584375806010E-02 2.843248630802E+03
 -1.350565454737E-03 -8.903172842005E-03 5.786811439530E-02 -2.155378995002E-03 -1.886451539283E-02 -3.889965732839E-02 4.992417756974E-02 4.628560907328E-02 1.631055732784E-01 1.684806061595E-02 1.720885121059E-02 -4.384232930623E-02 6.415308926202E-02 -5.977964119485E-02 -1.520942217673E-01 -2.083843089745E-02 6.240332368343E-02 5.526659685913E-02 -1.260248262397E-03 5.009670931874E-02 6.885543433102E-02 -5.013022834968E-03 -1.132123147048E-02 -5.302487442514E-02 -3.958855720639E-01 -3.700843812127E-02 -4.081630807389E-02 -4.290828869788E-02 -1.466489508155E-02 -5.395808287870E-02 4.360637144298E+02 -7.317804711603E+02 7.440118313333E+00 -2.671980575568E+01 -1.541314143177E+03 1.601620921534E+01 -2.063723599003E-02 -5.875429209008E-02 6.073094996860E-02 9.242934283130E-02 -5.802841466742E-02 -6.308582651150E-02 2.894754119552E+01 2.892270117955E+03
 1.803187215210E-02 2.000718686413E-02 1.273184688890E-02 5.823178969027E-03 -4.676772348561E-02 -5.907229118724E-02 -1.896299029571E-01 3.643890473425E-02 -4.610850116916E-01 -1.471429886932E-01 -1.397851043779E-01 -6.255376281089E-02 -4.413015435554E-01 2.817534650613E-01 -4.197226251426E-01 2.406876818593E-02 2.954603857196E-02 -1.277975225358E-01 3.123460309051E-02 4.146006634551E-02 -3.979960153026E-01 1.275741315551E-02 1.124320709943E-01 -3.337461361360E-01 1.432622909497E+00 -4.127897557288E-01 2.015125679769E-01 3.677030847271E-01 -7.900197117102E-02 2.726436046900E-01 -7.302080376444E+00 7.344685364935E+00 -8.525059616324E+01 -6.496815353051E-01 1.604943500894E+01 -7.726019011592E+01 4.742296994291E-02 2.597604382918E-02 4.403617838383E+00 -2.263231037031E-02 -4.504406902741E-02 -1.052149209897E+01 5.512491423138E+00 -2.916566440049E+01 1.845082564585E+02
 -2.735306224261E-02 2.603186910656E-02 -1.832213761464E-01 1.141735108738E-03 7.992442334744E-02 -6.210228906864E-03 -8.821352309560E-02 -6.012117349804E-02 -6.980397140157E-02 -5.388547720381E-02 4.236789722857E-02 1.203531242793E-01 -6.908321565511E-02 7.303261771000E-02 2.074228264263E-01 -1.957751715883E+01 3.450333536896E+01 -2.700004475420E-01 1.220530127781E-01 -9.550349997166E-02 2.076802584524E-01 3.145470668144E-02 -2.114520161616E-02 1.748529973654E-01 3.571581671670E-01 3.071369657214E-01 7.586972710089E-02 7.489817518263E-03 -7.073653754272E-02 -1.141646128820E-02 -1.222370246606E+03 -4.251203286883E+02 -1.922647688443E-01 -8.804917992720E-02 8.856681630855E-02 3.810110700211E-02 -1.173808544669E+03 4.236944094997E+02 -9.366817210925E+00 -4.721137385411E+02 -8.389087823249E+00 -7.784246634631E-01 -1.963670620977E+01 -3.400267919311E+01 2.106725150100E-01 2.753092664383E+03
 -1.806044524120E-03 -2.476838158987E-02 -2.100783579772E-01 1.809291297573E-01 -4.561322165819E-02 -7.116803655800E-01 -2.932429396907E-01 2.003862610930E-02 -6.348114594278E-02 -1.951045254160E-01 -1.255266888091E-01 -1.949190801324E-01 -5.208846388308E-01 4.691304692997E-01 -7.323074789726E-01 -3.317935231300E+01 5.842667677862E+01 -5.509383384086E-01 -1.708405817975E-02 2.358757712936E-01 4.667585850510E-02 8.564339175484E-02 1.517221310526E-02 -2.336582281183E-01 1.275064181585E+00 -9.612769327366E-01 3.994700784206E-01 4.921385965829E-01 -3.697326263512E-01 4.643593764960E-02 -4.284455683242E+02 -7.128529214014E+02 4.859410446162E+00 1.821679487806E-01 8.401972758546E-02 -2.518979894282E-01 4.250429638070E+02 -7.158078428632E+02 7.364316403755E+00 9.730809779667E-01 -1.497064205942E+03 1.591410434136E+01 3.439869697720E+01 5.968754050010E+01 -2.177892738919E-01 2.805204094413E+00 2.807737809421E+03
 -3.713993978589E-02 -1.642676768503E-01 4.571487747913E+00 -1.949766420232E-01 2.758687305134E-01 -8.522395614533E+00 3.361644735219E-01 -1.824017302977E-01 -9.791982363982E-01 2.417563384694E-01 3.245919005654E-01 -1.301769802374E+00 7.660330181208E-01 -7.742523621809E-01 1.829529620544E+00 1.302928999804E-01 5.899853548657E-02 9.455836089862E+00 3.490982455180E-01 -2.801762467259E-01 8.666919037920E-01 -2.162071672335E-02 -1.171922296018E-01 5.361645193576E-01 -2.627923940601E+00 7.206102989529E-01 -6.266129477944E-01 -6.978234470552E-01 3.309970898493E-01 1.183572713416E+00 4.670895616215E-02 4.771827764291E+00 -8.251798704641E+01 -4.430441620990E-02 -1.195847674698E-01 -9.400257736486E+00 -1.018481456570E+01 7.040762481216E+00 -8.062902605105E+01 -9.247946017598E-01 1.550263800317E+01 -8.246738934375E+01 -3.383815281984E-01 -5.216432915041E-01 9.610397130346E+00 1.049106804679E+01 -2.757410656159E+01 1.915005727974E+02
 -1.056737693984E-02 1.946072115687E-02 -4.550382611675E-02 8.669307513588E-03 -5.924600091040E-03 5.155052005564E-02 -2.289717420185E-01 9.792856393098E-02 -1.555357966513E-01 -7.469610266916E-02 -1.534957085322E-02 1.105836263507E-02 -3.588480822742E-01 1.217548508370E-01 2.426230334379E-01 2.037254125723E-02 -5.453672235560E-02 -7.301799593832E-03 5.845066106445E-02 -5.251510011416E-02 1.915017029426E-02 8.461409396916E-02 -1.831132125610E-02 1.006665197067E-01 1.039320901497E+00 2.692781005178E-01 7.441924902949E-02 1.760265381286E-01 -1.263130074198E-01 9.465748215192E-02 2.347051287665E-03 1.475011201354E-02 3.294274200424E-02 -1.505792914121E+03 -5.283795659252E+02 1.857262132095E+00 6.626289984904E-03 4.280963778058E-02 5.699479429544E-03 -1.277664838862E+03 4.351870719407E+02 -8.546425084844E+00 4.879270333610E+01 -1.173278957414E+00 8.711171662898E-02 3.939266100607E+01 -1.003283120242E-01 1.237524621439E-01 3.073629375568E+03
 1.490664537001E-02 2.850634282523E-03 -7.373301832097E-02 -2.120702419015E-02 3.906735573761E-02 9.584341506051E-02 7.156621812728E-02 -4.270534266034E-02 3.393881466095E-02 4.856907267778E-02 3.279800819768E-02 1.350558436021E-01 2.212270160102E-01 -6.047441673448E-02 1.177097912039E-01 2.235630051378E-02 -5.719643943348E-02 -1.707197323700E-02 -2.015326518206E-02 -5.209996925341E-02 8.216422891213E-03 -3.599213927124E-02 1.694759407535E-04 1.012222267335E-01 -3.135406605515E-01 1.721715776419E-01 -1.617770094088E-01 -1.523161651419E-01 1.345527330983E-01 -1.048122573144E-01 -3.463498782297E-02 2.899240489250E-02 -4.545808107828E-03 -5.381201831522E+02 -8.663227949642E+02 7.282185597581E+00 8.769619737689E-03 4.739177094499E-02 -2.400437331605E-03 4.200773171732E+02 -7.255041169155E+02 8.689424543880E+00 -8.587331803729E+01 2.111411731114E+00 -2.327743971456E-01 7.204823238377E+01 -2.229905172547E-01 3.160330516016E-01 9.028776638616E+01 2.539136487616E+03
 -3.258285558770E-03 -5.132251691166E-02 7.732419902400E-03 -5.817655064503E-02 5.634438013255E-02 4.565125678847E+00 1.322576318420E-01 -5.619056285299E-02 -6.485183988625E-01 3.758028604016E-02 -1.617642700720E-02 -3.268485238029E-01 1.923190270503E-01 -1.324819796863E-01 -1.014913589577E-01 -1.578905554676E-02 3.309693175121E-02 -4.477276405762E-02 8.287265732393E-02 -6.597116036543E-02 -2.696695104590E-01 -8.679202134945E-02 1.401854339481E-01 -2.607476933934E-01 -4.104778496154E-01 -1.362671087652E-01 -1.117578148576E-02 -9.430093250095E-02 2.322477662566E-01 4.942970564553E-01 -3.950680815830E-02 -8.208491697284E-02 -1.045230513243E+01 1.925878932715E+00 7.180037237104E+00 -7.016592524642E+01 9.275423818366E-02 7.084092856437E-02 4.497080628614E+00 -8.412106196122E+00 8.936627205302E+00 -7.632206692391E+01 1.074217654185E+00 1.493239596689E-01 1.101445611701E+01 -7.557079147411E-01 6.120944012442E-02 9.749684338555E+00 7.541014050569E+00 -2.603400497501E+01 1.510886284471E+02
 1.456361091539E-01 1.120636207226E-01 3.422971553591E-01 -1.228059000989E+03 4.451825715317E+02 -1.199475130609E+01 -2.486744648541E-01 -2.321409382418E-01 1.276850982595E-01 3.082199128611E-03 -2.003151993662E-01 3.081508304410E-01 -1.539084493654E-01 5.479341795422E-01 1.115609003708E+00 4.066142485433E+01 -2.056943315034E-01 3.769016047043E-01 -2.319672110477E-01 9.996896220666E-03 1.150365043460E-01 -1.985629378259E+01 3.561678131306E+01 -5.303322965491E-01 2.091504452075E+00 -1.633227194894E-01 -8.416642765521E-01 1.515125861984E-01 2.192253737882E-01 -2.520807821541E-01 -1.903172126396E-02 -6.492792991092E-02 -2.080697852915E-02 -2.659586877780E-02 -1.083716744768E-02 2.053752534993E-01 -2.517151679610E-01 -5.809990351809E-02 2.521846774015E-01 -1.138943523970E+03 -3.894671657307E+02 1.635150851026E+00 2.241461202985E-02 2.172325299066E-02 -1.346633093069E-01 3.672976690607E+01 -1.277961760165E-02 2.939031477757E-02 -1.771562679283E+01 -3.247700001650E+01 2.636805132220E-01 2.730886484198E+03
 -7.390535606475E-02 -2.433067913823E-02 -2.830545303063E-01 4.547515786099E+02 -7.422245465777E+02 1.413133596550E+01 9.961774252698E-01 4.529703782559E-01 -3.135528480698E-03 6.529931816649E-01 5.882069403433E-01 2.019766067731E-01 1.919065434422E+00 -1.648402948426E+00 -6.066557940415E-01 6.693843604436E+01 -6.711083815642E-01 2.917771401032E-01 1.887665053460E-01 -5.710025800887E-01 -2.572790744786E-02 -3.368134905694E+01 5.951405146005E+01 -1.136577075340E+00 -5.907708029338E+00 2.035287128907E+00 -2.573809540022E-01 -1.595817074438E+00 8.099113744406E-01 4.116414910289E-02 -6.043604931044E-03 9.644040232804E-02 5.150911956548E-02 -3.912412945893E-02 7.440536664211E-03 -1.120013339399E-01 1.596984367861E-01 3.169412031378E-01 1.038025128001E-01 -3.878565745503E+02 -6.687106707154E+02 8.665606374449E+00 4.733698395538E-02 -6.549444780782E-02 5.915209159418E-02 -6.498957809625E+01 -9.713772055452E-03 -3.040962577380E-01 3.147937440870E+01 5.760853633485E+01 -5.209081476735E-01 -9.887097137706E+00 2.819706016604E+03
 -1.530031816105E-02 3.399879564297E-01 4.650026447067E+00 -1.451193459260E+01 1.539913916161E+01 -8.321776724046E+01 1.237670585315E-01 1.046017435371E-01 1.157446727071E+00 4.200974835698E-02 3.794849650881E-02 5.805301906809E+00 3.043112182005E-02 1.444966610285E-01 -1.236582374003E+00 -2.468338746039E-01 8.439942345301E-02 8.515554593897E+00 -3.494414669819E-01 9.123348907272E-02 -4.752506468226E-01 6.393634170708E-01 -1.270516807083E+00 9.378203000818E+00 2.835335726652E-01 -2.383413862068E-01 6.546385069103E-02 1.270315947615E-01 3.805750491367E-02 -1.233134576719E+00 2.634655023729E-01 1.704642294919E-01 4.514046252001E+00 -1.721702258627E-01 1.768257527685E-01 4.669383657226E+00 -3.027255685677E-01 -5.199292504176E-01 -8.778447251734E+00 3.155750233385E+00 8.114657697764E+00 -8.057889104395E+01 5.287996869076E-02 -2.489861845814E-01 5.492539680704E-02 3.503133642884E-01 5.898042555952E-01 7.607358897479E+00 -2.441069048514E-01 -5.600404802097E-01 9.574606521670E+00 1.114691030646E+01 -5.652149236680E+01 1.878549831681E+02