#BIOSYM hessian 1
@Type: Hessian Update
@Units
 distance: 	A
 energy: 	Kcal/Mol
#header
@natom 69

#label
C1      C2      C3      C4      C5      C6      C7      C8      C9      C10     C11     C12     C13     C14     C15     C16     C17     C18     C19     C20     C21     C22     C23     H24     C25     C26     C27     C28     C29     C30     C31     C32     C33     C34     C35     C36     C37     C38     C39     C40     C41     C42     C43     C44     C45     C46     C47     C48     C49     H50     H51     H52     H53     H54     H55     H56     H57     H58     H59     H60     H61     H62     H63     H64     C65     H66     H67     O68     O69

#element
C  C  C  C  C  C  C  C  C  C  C  C  C  C  C  C  C  C  C  C  C  C  C  H  C  C  C  C  C  C  C  C  C  C  C  C  C  C  C  C  C  C  C  C  C  C  C  C  C  H  H  H  H  H  H  H  H  H  H  H  H  H  H  H  C  H  H  O  O 

#matrix
207
 2.783423896701E+03
 -2.628985583784E+01 2.814274063953E+03
 0.000000000000E+00 0.000000000000E+00 0.000000000000E+00
 3.925633918864E+01 6.744785592453E+01 0.000000000000E+00 2.797773565268E+03
 -2.687437176197E-01 -5.520768346841E-01 0.000000000000E+00 -2.052199488874E+01 2.771070817107E+03
 0.000000000000E+00 0.000000000000E+00 0.000000000000E+00 0.000000000000E+00 0.000000000000E+00 0.000000000000E+00
 -1.965349779628E+01 3.408567681758E+01 0.000000000000E+00 1.471890728376E-02 -7.747461034089E-02 0.000000000000E+00 2.813735899665E+03
 -3.421617478788E+01 5.937652571088E+01 0.000000000000E+00 4.838067585258E-02 -3.389043691563E-02 0.000000000000E+00 -3.144012128091E+01 2.822481017856E+03
 0.000000000000E+00 0.000000000000E+00 0.000000000000E+00 0.000000000000E+00 0.000000000000E+00 0.000000000000E+00 0.000000000000E+00 0.000000000000E+00 0.000000000000E+00
 3.919532643966E+01 -6.831666336952E+01 0.000000000000E+00 -1.963929550612E+01 3.474166664076E+01 0.000000000000E+00 4.162128599847E+01 7.225713827367E+01 0.000000000000E+00 2.794225902022E+03
 -1.442416857446E-01 3.177527194048E-01 0.000000000000E+00 -3.356995719394E+01 5.951111205455E+01 0.000000000000E+00 -1.999817456608E-01 -3.621734960220E-01 0.000000000000E+00 -2.094562519564E+01 2.837904448089E+03
 0.000000000000E+00 0.000000000000E+00 0.000000000000E+00 0.000000000000E+00 0.000000000000E+00 0.000000000000E+00 0.000000000000E+00 0.000000000000E+00 0.000000000000E+00 0.000000000000E+00 0.000000000000E+00 0.000000000000E+00
 -1.302446177207E-02 2.285200118485E-02 0.000000000000E+00 1.815411889493E-02 -2.619771863985E-02 0.000000000000E+00 4.233081748148E+01 -7.327016335574E+01 0.000000000000E+00 -2.157714689475E+01 3.778152456541E+01 0.000000000000E+00 2.640420431677E+03
 -3.656573660279E-02 -2.171273613379E-02 0.000000000000E+00 1.360464131219E-03 -1.322805346527E-02 0.000000000000E+00 5.138856896332E-01 -9.203132797470E-01 0.000000000000E+00 -3.595492921733E+01 6.296832556078E+01 0.000000000000E+00 -2.238282973937E+02 2.898386236333E+03
 0.000000000000E+00 0.000000000000E+00 0.000000000000E+00 0.000000000000E+00 0.000000000000E+00 0.000000000000E+00 0.000000000000E+00 0.000000000000E+00 0.000000000000E+00 0.000000000000E+00 0.000000000000E+00 0.000000000000E+00 0.000000000000E+00 0.000000000000E+00 0.000000000000E+00
 -1.235673995736E+03 4.440123250419E+02 0.000000000000E+00 -4.643993951317E+02 -7.254703377854E+00 0.000000000000E+00 -1.555668718334E-02 -4.218923593606E-03 0.000000000000E+00 7.231259194441E-03 -5.470566875068E-02 0.000000000000E+00 4.329618157639E-04 4.969861761463E-03 0.000000000000E+00 2.812594823231E+03
 4.394485358376E+02 -7.334524996158E+02 0.000000000000E+00 -6.678139881252E+00 -1.431737391499E+03 0.000000000000E+00 6.303657770868E-03 1.640948885098E-02 0.000000000000E+00 -4.234251462950E-02 7.013516027773E-03 0.000000000000E+00 -3.619628167802E-02 2.244875208117E-02 0.000000000000E+00 -1.624433572639E+00 2.770631039365E+03
 0.000000000000E+00 0.000000000000E+00 0.000000000000E+00 0.000000000000E+00 0.000000000000E+00 0.000000000000E+00 0.000000000000E+00 0.000000000000E+00 0.000000000000E+00 0.000000000000E+00 0.000000000000E+00 0.000000000000E+00 0.000000000000E+00 0.000000000000E+00 0.000000000000E+00 0.000000000000E+00 0.000000000000E+00 0.000000000000E+00
 -1.187961015940E+03 -4.142544962678E+02 0.000000000000E+00 -5.730947667977E-04 9.261893069120E-02 0.000000000000E+00 -1.266164004023E+03 4.442653945717E+02 0.000000000000E+00 -4.861514216900E+02 -7.830822189424E+00 0.000000000000E+00 1.557804044916E-02 3.329735022210E-02 0.000000000000E+00 -1.947950158501E+01 -3.341579322991E+01 0.000000000000E+00 2.819505120601E+03
 -4.138985279070E+02 -7.049418949110E+02 0.000000000000E+00 -9.858998508998E-02 8.034822395434E-02 0.000000000000E+00 4.461727420563E+02 -7.419698154371E+02 0.000000000000E+00 -9.681978856806E+00 -1.515243139639E+03 0.000000000000E+00 -1.817433693972E-03 -5.931757567554E-03 0.000000000000E+00 3.391933940233E+01 5.827313930456E+01 0.000000000000E+00 -2.518133037087E+01 2.844366810567E+03
 0.000000000000E+00 0.000000000000E+00 0.000000000000E+00 0.000000000000E+00 0.000000000000E+00 0.000000000000E+00 0.000000000000E+00 0.000000000000E+00 0.000000000000E+00 0.000000000000E+00 0.000000000000E+00 0.000000000000E+00 0.000000000000E+00 0.000000000000E+00 0.000000000000E+00 0.000000000000E+00 0.000000000000E+00 0.000000000000E+00 0.000000000000E+00 0.000000000000E+00 0.000000000000E+00
 -2.708454395132E-02 2.684656811092E-02 0.000000000000E+00 -1.218088103085E+03 -4.227062094639E+02 0.000000000000E+00 -2.063460531108E-02 9.178822853906E-04 0.000000000000E+00 -1.234625455803E+03 4.404508679238E+02 0.000000000000E+00 -5.885310717015E-03 2.653430375026E-02 0.000000000000E+00 3.767562857012E+01 -2.052615125152E-01 0.000000000000E+00 4.136363822943E+01 -1.918699593220E-01 0.000000000000E+00 2.814324725591E+03
 -3.505634951274E-02 3.454473383879E-02 0.000000000000E+00 -4.253931419387E+02 -7.114414069624E+02 0.000000000000E+00 2.578312886288E-02 -1.003454806330E-02 0.000000000000E+00 4.383950971610E+02 -7.342991814757E+02 0.000000000000E+00 8.530949423351E-04 2.030137679876E-02 0.000000000000E+00 -6.655862623040E+01 3.559911808999E-01 0.000000000000E+00 7.064461886703E+01 -3.664587940117E-01 0.000000000000E+00 -2.635677858134E+00 2.809530238118E+03
 0.000000000000E+00 0.000000000000E+00 0.000000000000E+00 0.000000000000E+00 0.000000000000E+00 0.000000000000E+00 0.000000000000E+00 0.000000000000E+00 0.000000000000E+00 0.000000000000E+00 0.000000000000E+00 0.000000000000E+00 0.000000000000E+00 0.000000000000E+00 0.000000000000E+00 0.000000000000E+00 0.000000000000E+00 0.000000000000E+00 0.000000000000E+00 0.000000000000E+00 0.000000000000E+00 0.000000000000E+00 0.000000000000E+00 0.000000000000E+00
 -6.483527216010E-03 1.213793476552E-02 0.000000000000E+00 -1.066193411078E-02 4.175156785546E-02 0.000000000000E+00 -1.193402334596E+03 -4.104146311136E+02 0.000000000000E+00 6.010983256860E-03 1.819426952104E-02 0.000000000000E+00 -5.224706710187E+02 1.319944568479E+01 0.000000000000E+00 -3.149831138311E-03 4.500626941626E-04 0.000000000000E+00 -1.981535701841E+01 -3.439455369354E+01 0.000000000000E+00 -4.232264178226E-03 -1.243671866995E-02 0.000000000000E+00 2.778743989523E+03
 3.401044550966E-02 3.856548384909E-03 0.000000000000E+00 -2.464513602490E-02 3.682717190816E-02 0.000000000000E+00 -4.188863450273E+02 -7.090975262054E+02 0.000000000000E+00 -5.822744119064E-03 7.412919857508E-03 0.000000000000E+00 1.480435965318E+01 -1.636064852291E+03 0.000000000000E+00 2.372157228950E-03 5.278758054338E-03 0.000000000000E+00 3.423745736539E+01 5.947169793941E+01 0.000000000000E+00 -1.249035571508E-02 -1.305711974084E-02 0.000000000000E+00 -3.150875512011E+01 2.960101989699E+03
 0.000000000000E+00 0.000000000000E+00 0.000000000000E+00 0.000000000000E+00 0.000000000000E+00 0.000000000000E+00 0.000000000000E+00 0.000000000000E+00 0.000000000000E+00 0.000000000000E+00 0.000000000000E+00 0.000000000000E+00 0.000000000000E+00 0.000000000000E+00 0.000000000000E+00 0.000000000000E+00 0.000000000000E+00 0.000000000000E+00 0.000000000000E+00 0.000000000000E+00 0.000000000000E+00 0.000000000000E+00 0.000000000000E+00 0.000000000000E+00 0.000000000000E+00 0.000000000000E+00 0.000000000000E+00
 4.298693185390E-02 -2.987533065090E-02 0.000000000000E+00 -4.123343955083E-02 3.328468618285E-02 0.000000000000E+00 1.641837927655E-02 4.945132161253E-03 0.000000000000E+00 -1.191248700979E+03 -4.187705329226E+02 0.000000000000E+00 -1.341536079021E+03 4.927721966824E+02 0.000000000000E+00 -6.341323400609E-04 3.898143110115E-02 0.000000000000E+00 3.911450219872E+01 -1.750837264426E-01 0.000000000000E+00 -1.945501858752E+01 -3.335873137412E+01 0.000000000000E+00 4.903890096445E+01 6.136170697301E-01 0.000000000000E+00 2.884319662516E+03
 7.480549158406E-03 2.636055277242E-02 0.000000000000E+00 -1.957538902414E-02 -2.013069876344E-02 0.000000000000E+00 -4.657789133160E-03 -1.509868187691E-03 0.000000000000E+00 -4.105334886606E+02 -7.089044023285E+02 0.000000000000E+00 4.909150560099E+02 -8.177176273543E+02 0.000000000000E+00 1.048236583302E-02 -3.320690766420E-02 0.000000000000E+00 -6.858264035750E+01 3.492115461643E-01 0.000000000000E+00 3.400590186932E+01 5.832649986748E+01 0.000000000000E+00 8.165689207436E+01 1.030981028650E+00 0.000000000000E+00 -9.695688468770E+01 2.849180068228E+03
 0.000000000000E+00 0.000000000000E+00 0.000000000000E+00 0.000000000000E+00 0.000000000000E+00 0.000000000000E+00 0.000000000000E+00 0.000000000000E+00 0.000000000000E+00 0.000000000000E+00 0.000000000000E+00 0.000000000000E+00 0.000000000000E+00 0.000000000000E+00 0.000000000000E+00 0.000000000000E+00 0.000000000000E+00 0.000000000000E+00 0.000000000000E+00 0.000000000000E+00 0.000000000000E+00 0.000000000000E+00 0.000000000000E+00 0.000000000000E+00 0.000000000000E+00 0.000000000000E+00 0.000000000000E+00 0.000000000000E+00 0.000000000000E+00 0.000000000000E+00
 8.768019080402E-02 5.635876927694E-01 0.000000000000E+00 -1.064581107279E-01 -1.748925157266E-01 0.000000000000E+00 9.762412250694E-02 2.962487064988E-01 0.000000000000E+00 2.187678979328E-01 -3.888890253527E-02 0.000000000000E+00 1.261426115357E-01 1.713965433978E-01 0.000000000000E+00 -3.102376146751E-01 -5.374217420196E-01 0.000000000000E+00 -2.329197361335E-01 -2.515378323051E-01 0.000000000000E+00 -4.298756407650E-01 -5.474425320651E-02 0.000000000000E+00 -1.988701128703E-01 -2.636009134039E-01 0.000000000000E+00 -1.910950038487E-01 -9.719252403466E-02 0.000000000000E+00 2.754946811890E+03
 -2.956975241694E-01 -5.818682649726E-01 0.000000000000E+00 6.962438301260E-01 -1.015974270076E+00 0.000000000000E+00 -3.478376425675E-01 -6.882198392252E-02 0.000000000000E+00 -5.811878849568E-02 -7.802985032549E-02 0.000000000000E+00 4.643010328254E-02 -2.805496597046E-01 0.000000000000E+00 -2.968691668346E-01 1.834978243573E-01 0.000000000000E+00 2.976692514121E-01 -1.023346328709E-01 0.000000000000E+00 3.030017992899E-01 5.390310833603E-01 0.000000000000E+00 2.196855508843E-01 2.390863523113E-01 0.000000000000E+00 -6.400561184495E-02 1.308923154949E-01 0.000000000000E+00 -2.460739703610E+00 2.672273928883E+03
 0.000000000000E+00 0.000000000000E+00 0.000000000000E+00 0.000000000000E+00 0.000000000000E+00 0.000000000000E+00 0.000000000000E+00 0.000000000000E+00 0.000000000000E+00 0.000000000000E+00 0.000000000000E+00 0.000000000000E+00 0.000000000000E+00 0.000000000000E+00 0.000000000000E+00 0.000000000000E+00 0.000000000000E+00 0.000000000000E+00 0.000000000000E+00 0.000000000000E+00 0.000000000000E+00 0.000000000000E+00 0.000000000000E+00 0.000000000000E+00 0.000000000000E+00 0.000000000000E+00 0.000000000000E+00 0.000000000000E+00 0.000000000000E+00 0.000000000000E+00 0.000000000000E+00 0.000000000000E+00 0.000000000000E+00
 3.385443373318E-01 9.104020992452E-01 0.000000000000E+00 1.960338354474E-01 8.267249407401E-02 0.000000000000E+00 3.582398479820E-01 1.368046918564E-01 0.000000000000E+00 1.672587506375E-01 1.426043293088E-02 0.000000000000E+00 9.307631613607E-02 1.644672055062E-01 0.000000000000E+00 -9.124744454505E-02 -1.098067062573E+00 0.000000000000E+00 -3.015588405706E-01 -3.153362506291E-01 0.000000000000E+00 -5.001721022518E-01 -3.814875176264E-01 0.000000000000E+00 -2.294648340998E-01 -2.882392205056E-01 0.000000000000E+00 -1.675509160160E-01 -5.471452184354E-02 0.000000000000E+00 3.760154520545E+01 7.836786091377E+01 0.000000000000E+00 2.775154716030E+03
 3.687519924437E-01 1.248339009410E+00 0.000000000000E+00 7.774327043787E-01 -1.426330115105E-01 0.000000000000E+00 4.356488062282E-01 2.283904340307E-01 0.000000000000E+00 3.299271542927E-01 6.749584410863E-02 0.000000000000E+00 2.482485023771E-01 2.609186203920E-01 0.000000000000E+00 -3.354308010833E-01 -1.495626760456E+00 0.000000000000E+00 -5.266125622581E-01 -5.273853005637E-01 0.000000000000E+00 -7.441140337393E-01 -4.198916361844E-01 0.000000000000E+00 -3.031949365017E-01 -4.945527669887E-01 0.000000000000E+00 -3.863149378444E-01 -2.635995038453E-02 0.000000000000E+00 -4.722496248500E+00 6.521285358017E+00 0.000000000000E+00 2.747882423295E+02 2.913163702182E+03
 0.000000000000E+00 0.000000000000E+00 0.000000000000E+00 0.000000000000E+00 0.000000000000E+00 0.000000000000E+00 0.000000000000E+00 0.000000000000E+00 0.000000000000E+00 0.000000000000E+00 0.000000000000E+00 0.000000000000E+00 0.000000000000E+00 0.000000000000E+00 0.000000000000E+00 0.000000000000E+00 0.000000000000E+00 0.000000000000E+00 0.000000000000E+00 0.000000000000E+00 0.000000000000E+00 0.000000000000E+00 0.000000000000E+00 0.000000000000E+00 0.000000000000E+00 0.000000000000E+00 0.000000000000E+00 0.000000000000E+00 0.000000000000E+00 0.000000000000E+00 0.000000000000E+00 0.000000000000E+00 0.000000000000E+00 0.000000000000E+00 0.000000000000E+00 0.000000000000E+00
 -2.018482359090E+01 -3.495529485366E+01 0.000000000000E+00 3.840988154047E+01 -7.195088627833E-02 0.000000000000E+00 -2.757657192797E-02 -5.856793372500E-02 0.000000000000E+00 -5.382858296309E-02 -1.121166223790E-01 0.000000000000E+00 1.020360320957E-04 -3.218211042021E-02 0.000000000000E+00 -1.231879829832E+03 -4.313199635988E+02 0.000000000000E+00 1.180262364131E-02 1.424784547904E-01 0.000000000000E+00 2.302096806331E-01 6.126241158249E-02 0.000000000000E+00 6.783206098813E-04 3.468485142709E-02 0.000000000000E+00 1.118291530956E-02 3.765228605836E-02 0.000000000000E+00 -1.869550734464E+01 3.130267018412E+01 0.000000000000E+00 7.041940493208E-01 3.256189712682E-01 0.000000000000E+00 2.758506196583E+03
 3.478105661967E+01 6.050879197128E+01 0.000000000000E+00 -6.711197718822E+01 1.981659183343E-01 0.000000000000E+00 -1.891287706867E-02 4.586751623454E-02 0.000000000000E+00 9.215500066389E-02 1.088189998560E-02 0.000000000000E+00 7.032496044274E-02 5.784649189374E-02 0.000000000000E+00 -4.371888622650E+02 -7.208779873886E+02 0.000000000000E+00 -5.889828217164E-02 -1.253960330751E-01 0.000000000000E+00 -8.365058726708E-02 1.179172350284E-02 0.000000000000E+00 -4.087927905571E-02 -1.051796844493E-01 0.000000000000E+00 -1.133377862579E-01 -1.274777206041E-02 0.000000000000E+00 -3.282477942774E+01 5.847280223471E+01 0.000000000000E+00 3.114716928935E-01 4.359031882787E-01 0.000000000000E+00 1.195139320836E+01 2.792685065064E+03
 0.000000000000E+00 0.000000000000E+00 0.000000000000E+00 0.000000000000E+00 0.000000000000E+00 0.000000000000E+00 0.000000000000E+00 0.000000000000E+00 0.000000000000E+00 0.000000000000E+00 0.000000000000E+00 0.000000000000E+00 0.000000000000E+00 0.000000000000E+00 0.000000000000E+00 0.000000000000E+00 0.000000000000E+00 0.000000000000E+00 0.000000000000E+00 0.000000000000E+00 0.000000000000E+00 0.000000000000E+00 0.000000000000E+00 0.000000000000E+00 0.000000000000E+00 0.000000000000E+00 0.000000000000E+00 0.000000000000E+00 0.000000000000E+00 0.000000000000E+00 0.000000000000E+00 0.000000000000E+00 0.000000000000E+00 0.000000000000E+00 0.000000000000E+00 0.000000000000E+00 0.000000000000E+00 0.000000000000E+00 0.000000000000E+00
 1.618680857026E-01 4.506306903991E-01 0.000000000000E+00 -1.899515370874E+01 -3.151896628359E+01 0.000000000000E+00 1.460423408016E-01 6.382212528244E-02 0.000000000000E+00 6.654414413382E-02 4.346641534814E-02 0.000000000000E+00 -1.542349935630E-03 5.200946989584E-02 0.000000000000E+00 1.476703034192E-01 -6.582322053700E-01 0.000000000000E+00 -1.163454214980E-01 -1.226966804582E-01 0.000000000000E+00 -2.279822393288E-01 -2.132284647916E-01 0.000000000000E+00 -7.455272261959E-02 -6.879633645384E-02 0.000000000000E+00 3.808146930286E-03 -2.308491544424E-02 0.000000000000E+00 3.814672479650E+01 -6.375443916057E+01 0.000000000000E+00 -2.427259651302E+01 4.049814399872E+01 0.000000000000E+00 3.867907290070E+01 6.588516401984E+01 0.000000000000E+00 2.797722061498E+03
 -8.543191180305E-02 -2.063733899738E-01 0.000000000000E+00 3.343178143182E+01 5.574812127643E+01 0.000000000000E+00 -1.180807186288E-01 5.802948855276E-03 0.000000000000E+00 -3.018863942646E-02 -8.336787192793E-02 0.000000000000E+00 -3.075311334314E-02 -9.476111973080E-02 0.000000000000E+00 -1.043176120024E-01 9.650960217917E-02 0.000000000000E+00 1.163605980057E-01 2.415322348646E-02 0.000000000000E+00 1.456149262116E-01 2.136581889137E-01 0.000000000000E+00 6.041827800108E-02 1.100056660347E-01 0.000000000000E+00 5.269164145866E-02 2.575338551083E-02 0.000000000000E+00 1.453841629034E+00 -3.685255750262E+00 0.000000000000E+00 -3.937652488761E+01 7.707510019417E+01 0.000000000000E+00 -4.026504688809E-01 -2.157271512261E-01 0.000000000000E+00 -3.661765941596E+01 2.751614783077E+03
 0.000000000000E+00 0.000000000000E+00 0.000000000000E+00 0.000000000000E+00 0.000000000000E+00 0.000000000000E+00 0.000000000000E+00 0.000000000000E+00 0.000000000000E+00 0.000000000000E+00 0.000000000000E+00 0.000000000000E+00 0.000000000000E+00 0.000000000000E+00 0.000000000000E+00 0.000000000000E+00 0.000000000000E+00 0.000000000000E+00 0.000000000000E+00 0.000000000000E+00 0.000000000000E+00 0.000000000000E+00 0.000000000000E+00 0.000000000000E+00 0.000000000000E+00 0.000000000000E+00 0.000000000000E+00 0.000000000000E+00 0.000000000000E+00 0.000000000000E+00 0.000000000000E+00 0.000000000000E+00 0.000000000000E+00 0.000000000000E+00 0.000000000000E+00 0.000000000000E+00 0.000000000000E+00 0.000000000000E+00 0.000000000000E+00 0.000000000000E+00 0.000000000000E+00 0.000000000000E+00
 -7.165874795713E-01 -2.847648467044E+00 0.000000000000E+00 1.826833101505E-01 -1.888851209793E+00 0.000000000000E+00 -1.077466282365E+00 -5.606253601845E-01 0.000000000000E+00 -7.051426783314E-01 -2.651661481480E-01 0.000000000000E+00 -1.663885917130E-01 -8.554122014611E-01 0.000000000000E+00 3.266143541319E-01 2.840563565681E+00 0.000000000000E+00 1.104781143704E+00 5.222752894899E-01 0.000000000000E+00 1.579058103576E+00 1.370200857509E+00 0.000000000000E+00 8.653477967135E-01 9.563993377629E-01 0.000000000000E+00 2.868098356576E-01 4.408075468111E-01 0.000000000000E+00 -1.191794388645E+03 3.946205249986E+02 0.000000000000E+00 -4.956820698875E+02 -1.568313071839E+01 0.000000000000E+00 -3.167445308567E+00 9.036038495121E-01 0.000000000000E+00 7.095730661507E+00 -8.522019175464E+00 0.000000000000E+00 2.698985271937E+03
 -2.879595543803E-01 -1.669546206557E+00 0.000000000000E+00 -4.518379326358E-01 -4.115552382592E-01 0.000000000000E+00 -4.752004300036E-01 -4.588878077753E-01 0.000000000000E+00 -5.107834678024E-01 -1.090134787161E-01 0.000000000000E+00 -2.097118769499E-01 -4.119298098237E-01 0.000000000000E+00 4.517048678888E-01 2.090879964179E+00 0.000000000000E+00 5.854984161482E-01 5.733722833429E-01 0.000000000000E+00 1.035925987927E+00 5.351723425635E-01 0.000000000000E+00 4.720830421903E-01 5.469394449067E-01 0.000000000000E+00 3.308584415521E-01 2.244273693768E-01 0.000000000000E+00 4.380027563604E+02 -7.207194683917E+02 0.000000000000E+00 -3.940174010390E+01 -1.572364272601E+03 0.000000000000E+00 -8.061098997265E-01 -4.580647515361E-01 0.000000000000E+00 9.704355967456E-01 -8.467294932240E-01 0.000000000000E+00 2.585393306662E+01 2.901316789850E+03
 0.000000000000E+00 0.000000000000E+00 0.000000000000E+00 0.000000000000E+00 0.000000000000E+00 0.000000000000E+00 0.000000000000E+00 0.000000000000E+00 0.000000000000E+00 0.000000000000E+00 0.000000000000E+00 0.000000000000E+00 0.000000000000E+00 0.000000000000E+00 0.000000000000E+00 0.000000000000E+00 0.000000000000E+00 0.000000000000E+00 0.000000000000E+00 0.000000000000E+00 0.000000000000E+00 0.000000000000E+00 0.000000000000E+00 0.000000000000E+00 0.000000000000E+00 0.000000000000E+00 0.000000000000E+00 0.000000000000E+00 0.000000000000E+00 0.000000000000E+00 0.000000000000E+00 0.000000000000E+00 0.000000000000E+00 0.000000000000E+00 0.000000000000E+00 0.000000000000E+00 0.000000000000E+00 0.000000000000E+00 0.000000000000E+00 0.000000000000E+00 0.000000000000E+00 0.000000000000E+00 0.000000000000E+00 0.000000000000E+00 0.000000000000E+00
 -8.034472057896E-02 2.313063290799E-01 0.000000000000E+00 -1.901179608744E-01 1.357103536402E-01 0.000000000000E+00 6.113469768648E-02 4.102861309391E-02 0.000000000000E+00 5.783682267873E-02 5.196807242620E-02 0.000000000000E+00 -1.438115168303E-03 1.406171072158E-01 0.000000000000E+00 -1.929271456780E+01 3.357179084252E+01 0.000000000000E+00 -6.906153519845E-02 2.380245405818E-02 0.000000000000E+00 -9.327663831275E-02 -1.146490504004E-01 0.000000000000E+00 -6.861258999953E-02 -1.230298594078E-01 0.000000000000E+00 -8.844843520584E-04 -5.917304257746E-02 0.000000000000E+00 -1.218229982992E+03 -4.262102268470E+02 0.000000000000E+00 -3.255206510639E+00 -4.673193408713E+00 0.000000000000E+00 -1.169681717207E+03 4.179688841813E+02 0.000000000000E+00 -4.704924137573E+02 -1.422641770435E+01 0.000000000000E+00 -8.213036538494E+00 -2.623442435685E+01 0.000000000000E+00 2.741922879288E+03
 5.527688339333E-02 2.001552764021E-01 0.000000000000E+00 -4.175929430665E-01 4.220275610424E-01 0.000000000000E+00 3.989144624528E-02 5.111267242661E-02 0.000000000000E+00 -2.629013136649E-02 3.711445553425E-02 0.000000000000E+00 -2.940638449324E-02 7.662897338020E-02 0.000000000000E+00 -3.263171777715E+01 5.743762238069E+01 0.000000000000E+00 -3.067462418508E-02 1.035693107214E-02 0.000000000000E+00 -1.224961219877E-01 -1.640670249241E-01 0.000000000000E+00 -2.952773393053E-02 -6.577258975542E-02 0.000000000000E+00 4.395660822042E-02 -3.744086568230E-02 0.000000000000E+00 -4.345239422544E+02 -6.990202829195E+02 0.000000000000E+00 -3.641890886988E+00 -3.684538072424E+00 0.000000000000E+00 4.195238502044E+02 -7.023216456184E+02 0.000000000000E+00 -5.607620844763E+00 -1.472589423721E+03 0.000000000000E+00 4.330113692502E+01 6.378578876825E+01 0.000000000000E+00 1.548377533089E+01 2.760189814368E+03
 0.000000000000E+00 0.000000000000E+00 0.000000000000E+00 0.000000000000E+00 0.000000000000E+00 0.000000000000E+00 0.000000000000E+00 0.000000000000E+00 0.000000000000E+00 0.000000000000E+00 0.000000000000E+00 0.000000000000E+00 0.000000000000E+00 0.000000000000E+00 0.000000000000E+00 0.000000000000E+00 0.000000000000E+00 0.000000000000E+00 0.000000000000E+00 0.000000000000E+00 0.000000000000E+00 0.000000000000E+00 0.000000000000E+00 0.000000000000E+00 0.000000000000E+00 0.000000000000E+00 0.000000000000E+00 0.000000000000E+00 0.000000000000E+00 0.000000000000E+00 0.000000000000E+00 0.000000000000E+00 0.000000000000E+00 0.000000000000E+00 0.000000000000E+00 0.000000000000E+00 0.000000000000E+00 0.000000000000E+00 0.000000000000E+00 0.000000000000E+00 0.000000000000E+00 0.000000000000E+00 0.000000000000E+00 0.000000000000E+00 0.000000000000E+00 0.000000000000E+00 0.000000000000E+00 0.000000000000E+00
 -7.595415896147E-02 -8.479458340507E-01 0.000000000000E+00 -1.289338334151E-02 -6.797679905588E-01 0.000000000000E+00 -2.531485376541E-01 -2.020408213005E-01 0.000000000000E+00 -2.282216899601E-01 -1.243651107092E-01 0.000000000000E+00 -7.456785515788E-02 -2.935265282283E-01 0.000000000000E+00 6.548093806079E-02 7.668028132749E-01 0.000000000000E+00 3.487043704500E-01 1.579150791331E-01 0.000000000000E+00 5.035412961191E-01 4.043465927109E-01 0.000000000000E+00 2.462891109149E-01 3.255550834911E-01 0.000000000000E+00 1.068413628736E-01 1.328326280326E-01 0.000000000000E+00 1.838858263138E+00 -7.797158979986E+00 0.000000000000E+00 -1.497642437258E+03 -5.092118353428E+02 0.000000000000E+00 -7.469990549092E-01 5.766187067663E-01 0.000000000000E+00 -1.305979334495E+03 4.401790080122E+02 0.000000000000E+00 2.599739554266E+01 -1.319400917919E+01 0.000000000000E+00 4.243263797544E+01 1.313407985173E+00 0.000000000000E+00 3.098460911368E+03
 -2.791536596161E-03 -6.948563417089E-02 0.000000000000E+00 2.524009058593E-01 -2.592175479856E-01 0.000000000000E+00 -1.760370484649E-02 1.150967734376E-02 0.000000000000E+00 4.681855275911E-02 -1.119806849310E-04 0.000000000000E+00 5.136704473675E-02 -1.114279456238E-02 0.000000000000E+00 -2.127345146381E-01 7.076211406373E-02 0.000000000000E+00 -6.809511949066E-02 -3.215885561860E-02 0.000000000000E+00 -2.214101490223E-02 5.752844284008E-02 0.000000000000E+00 -1.458661630500E-02 -1.237928168756E-02 0.000000000000E+00 -6.866874892376E-02 1.284002099217E-02 0.000000000000E+00 6.421075482265E-01 4.356291073052E-01 0.000000000000E+00 -5.271654603616E+02 -8.559944791230E+02 0.000000000000E+00 -3.031368968243E-01 -1.696338241805E-02 0.000000000000E+00 4.296072341694E+02 -7.382343692286E+02 0.000000000000E+00 -9.053322419886E+01 -4.909933439482E-01 0.000000000000E+00 7.244463321296E+01 -1.106428858991E-01 0.000000000000E+00 6.688269224683E+01 2.542242022422E+03
 0.000000000000E+00 0.000000000000E+00 0.000000000000E+00 0.000000000000E+00 0.000000000000E+00 0.000000000000E+00 0.000000000000E+00 0.000000000000E+00 0.000000000000E+00 0.000000000000E+00 0.000000000000E+00 0.000000000000E+00 0.000000000000E+00 0.000000000000E+00 0.000000000000E+00 0.000000000000E+00 0.000000000000E+00 0.000000000000E+00 0.000000000000E+00 0.000000000000E+00 0.000000000000E+00 0.000000000000E+00 0.000000000000E+00 0.000000000000E+00 0.000000000000E+00 0.000000000000E+00 0.000000000000E+00 0.000000000000E+00 0.000000000000E+00 0.000000000000E+00 0.000000000000E+00 0.000000000000E+00 0.000000000000E+00 0.000000000000E+00 0.000000000000E+00 0.000000000000E+00 0.000000000000E+00 0.000000000000E+00 0.000000000000E+00 0.000000000000E+00 0.000000000000E+00 0.000000000000E+00 0.000000000000E+00 0.000000000000E+00 0.000000000000E+00 0.000000000000E+00 0.000000000000E+00 0.000000000000E+00 0.000000000000E+00 0.000000000000E+00 0.000000000000E+00
 -1.119719020983E-01 -1.787282981374E-01 0.000000000000E+00 -1.235733965536E+03 4.455578781085E+02 0.000000000000E+00 -4.838258175439E-02 -5.041027917544E-02 0.000000000000E+00 -3.060265935100E-02 6.865219975081E-03 0.000000000000E+00 -2.513899684866E-02 -1.419335789721E-02 0.000000000000E+00 4.021615881650E+01 2.806397561472E-02 0.000000000000E+00 5.821753808479E-02 8.895607809632E-02 0.000000000000E+00 -1.997555229911E+01 3.554029074244E+01 0.000000000000E+00 4.295875149957E-02 4.485506281487E-02 0.000000000000E+00 3.961335980612E-02 1.001456741537E-03 0.000000000000E+00 6.893910014566E-01 -1.351492443526E+00 0.000000000000E+00 8.238032189575E-02 -3.601004716796E-01 0.000000000000E+00 -4.237348116805E-02 1.442090068823E-02 0.000000000000E+00 -1.136216323696E+03 -3.928280747593E+02 0.000000000000E+00 -2.587877450369E+00 -7.141115628987E-01 0.000000000000E+00 3.766044465557E+01 1.433351637633E-01 0.000000000000E+00 -1.899064322783E+01 -3.398486618059E+01 0.000000000000E+00 2.738353231708E+03
 -2.851034527031E-02 -7.066942348064E-02 0.000000000000E+00 4.544833968846E+02 -7.409259883760E+02 0.000000000000E+00 -8.573108796750E-04 -1.426014775103E-02 0.000000000000E+00 -5.586722158985E-03 8.814247163483E-03 0.000000000000E+00 -2.314944220003E-02 1.172194824404E-02 0.000000000000E+00 6.754033348914E+01 -3.140296066092E-01 0.000000000000E+00 1.897227292385E-02 5.138027443675E-02 0.000000000000E+00 -3.372554328664E+01 5.967557896214E+01 0.000000000000E+00 3.568481491313E-03 1.539303921780E-02 0.000000000000E+00 3.672970360797E-02 -1.764537515572E-03 0.000000000000E+00 -1.659026544891E-01 3.855131005036E-01 0.000000000000E+00 -6.587454539968E-01 -6.574209881474E-01 0.000000000000E+00 4.913303157540E-02 -2.909443421982E-02 0.000000000000E+00 -3.935478534766E+02 -6.770884193115E+02 0.000000000000E+00 8.326986288110E-01 4.110910866957E-01 0.000000000000E+00 -6.410760454312E+01 2.601275062415E-01 0.000000000000E+00 3.181797146995E+01 5.876616568350E+01 0.000000000000E+00 -9.554464599851E+00 2.825386292485E+03
 0.000000000000E+00 0.000000000000E+00 0.000000000000E+00 0.000000000000E+00 0.000000000000E+00 0.000000000000E+00 0.000000000000E+00 0.000000000000E+00 0.000000000000E+00 0.000000000000E+00 0.000000000000E+00 0.000000000000E+00 0.000000000000E+00 0.000000000000E+00 0.000000000000E+00 0.000000000000E+00 0.000000000000E+00 0.000000000000E+00 0.000000000000E+00 0.000000000000E+00 0.000000000000E+00 0.000000000000E+00 0.000000000000E+00 0.000000000000E+00 0.000000000000E+00 0.000000000000E+00 0.000000000000E+00 0.000000000000E+00 0.000000000000E+00 0.000000000000E+00 0.000000000000E+00 0.000000000000E+00 0.000000000000E+00 0.000000000000E+00 0.000000000000E+00 0.000000000000E+00 0.000000000000E+00 0.000000000000E+00 0.000000000000E+00 0.000000000000E+00 0.000000000000E+00 0.000000000000E+00 0.000000000000E+00 0.000000000000E+00 0.000000000000E+00 0.000000000000E+00 0.000000000000E+00 0.000000000000E+00 0.000000000000E+00 0.000000000000E+00 0.000000000000E+00 0.000000000000E+00 0.000000000000E+00 0.000000000000E+00