#BIOSYM hessian 1
@Type: Hessian Update
@Units
 distance: 	A
 energy: 	Kcal/Mol
#header
@natom 67

#label
C1      C2      C3      C4      C5      C6      C7      C8      C9      C10     C11     C12     C13     C14     C15     C16     C17     C18     C19     C20     C21     C22     C23     H24     C25     C26     C27     C28     C29     C30     C31     C32     C33     C34     C35     C36     C37     C38     C39     C40     C41     C42     C43     C44     C45     C46     C47     C48     C49     H50     H51     H52     H53     H54     H55     H56     H57     H58     H59     H60     H61     H62     H63     H64     H65     H66     H67

#element
C  C  C  C  C  C  C  C  C  C  C  C  C  C  C  C  C  C  C  C  C  C  C  H  C  C  C  C  C  C  C  C  C  C  C  C  C  C  C  C  C  C  C  C  C  C  C  C  C  H  H  H  H  H  H  H  H  H  H  H  H  H  H  H  H  H  H 

#matrix
201
 2.783988749385E+03
 -2.324270553303E+01 2.813965531332E+03
 2.543890811755E+01 -2.285106161232E+01 1.942714872816E+02
 4.024155541055E+01 6.698628022619E+01 -1.356379383552E+00 2.791005194072E+03
 -9.596522360204E-01 -5.354451038351E-01 4.924824140692E-01 -2.308143414962E+01 2.766272752478E+03
 1.520937980047E-02 5.525596349973E-01 8.160909855398E+00 1.382654404630E+01 -3.693626568331E+01 1.914485619651E+02
 -2.533317236228E+01 3.120368129742E+01 -1.962383147525E-01 5.707846201274E-01 -2.109819187313E+00 -4.251219044349E-01 2.770894538403E+03
 -3.327714538852E+01 6.028923380181E+01 -1.413284514504E+00 9.604486501369E-04 4.007471668987E-02 7.121750842140E-03 -2.267243025542E+01 2.812474877591E+03
 -1.787222933270E-01 6.895110206106E-02 1.002679380172E+01 -4.343314635818E-01 9.823192964205E-02 -6.444204100597E-02 4.237398385410E+01 -4.169690543586E+01 2.000476695223E+02
 3.648605395092E+01 -6.881180065412E+01 1.654650383048E+00 -1.925707347588E+01 3.456125195074E+01 -7.415527748297E-01 3.509065343782E+01 7.275196556080E+01 -1.396367583217E+00 2.778521516691E+03
 5.898967261802E-01 7.023097275820E-01 5.186287332668E-01 -3.260169986285E+01 5.902565494120E+01 -1.043915464753E+00 3.450504724397E+00 -2.775979338621E-02 5.179326878379E-01 -1.935886360441E+01 2.831043389045E+03
 6.424623814808E-01 -5.132116492515E-01 9.208032911655E+00 -2.157218228399E-02 -7.205782746374E-01 9.435813194645E+00 1.144945817311E+00 1.379708024921E+00 1.163832789352E+01 2.428027582301E+01 -4.429064225347E+01 1.969068785881E+02
 -1.261390336247E+00 -1.080189285551E+00 1.501429354238E-01 9.483215239488E-01 -8.462260769847E-01 8.050339738439E-02 2.999117701500E+01 -7.166244362934E+01 2.178147930375E+00 -2.258133025752E+01 3.549755353169E+01 -1.156098462520E+00 2.622130452534E+03
 1.706686149406E+00 1.696791409342E+00 1.530401632978E+00 1.159930932773E+00 3.616771307948E-02 -5.671012505865E-02 1.269599476992E+01 -4.583741093641E+00 1.952912853119E+00 -3.248333255031E+01 5.703251262389E+01 -7.926099381608E-01 -2.298766023417E+02 2.887927485556E+03
 -4.802803746809E-01 -3.716557733472E-01 -1.298859215052E+00 4.303198646714E-01 -8.006864829171E-02 2.354619195585E-01 -2.731013251580E+00 -1.735278264678E-02 5.699839931591E+00 -6.240521396124E-01 -6.063182351838E-01 8.198818729093E+00 3.548073883482E+01 -6.496852124677E+01 1.624182848152E+02
 -1.230043645476E+03 4.478715217243E+02 -1.351245767406E+01 -4.642791778960E+02 -7.023059548402E+00 -2.276867501783E+00 1.522116365487E+00 -3.071304966271E-02 -4.254611045148E-02 -1.847600918792E-02 2.967200803432E-01 1.872702048040E-01 4.858293132510E-03 -2.729122904541E-01 1.757473522149E-01 2.822136764034E+03
 4.420728449277E+02 -7.408090019198E+02 1.046474441943E+01 -6.140526859506E+00 -1.432747166914E+03 1.776706192813E+01 6.682957514146E-01 1.711314035158E-01 6.864302393185E-02 9.796491480605E-01 7.585058469271E-01 -3.848049606680E-01 1.572352978300E+00 9.033669500000E-01 -3.412875964567E-01 -3.517699069929E+00 2.780046339623E+03
 -1.406604949772E+01 1.012920213960E+01 -8.272976086906E+01 -2.282445191731E+00 1.779470318547E+01 -8.134653392935E+01 -2.193451136570E-01 2.937412307324E-01 3.496402549539E+00 -9.536261927998E-02 5.623955359275E-01 -1.003392851099E+01 1.135297343609E-01 8.697214822175E-01 4.020519209635E-01 1.690634720127E+01 -3.211118301639E+01 1.938399207528E+02
 -1.190214417024E+03 -4.114372534786E+02 -8.659896878371E+00 -4.762707019938E-01 1.252831938201E+00 2.010634318212E-01 -1.249688143681E+03 4.424284489631E+02 -2.500314648010E+01 -4.740694788169E+02 -9.160506165368E+00 -5.250643851560E+00 9.481309104224E-01 -6.920809417910E+00 2.506842334712E+00 -1.997965361141E+01 -3.349798351219E+01 4.795078344516E-01 2.806867085473E+03
 -4.137955263505E+02 -6.984634282159E+02 2.957905205734E+00 -1.958014924113E-01 5.841078138861E-01 -4.450014330746E-01 4.388944476413E+02 -7.527459820177E+02 1.763995840594E+01 -8.822643797405E+00 -1.507976373525E+03 2.352664606246E+01 3.643968196265E+00 7.847393927653E+00 -1.688968369659E+00 3.389533790487E+01 5.767648072250E+01 -4.836613788097E-01 -2.398127510976E+01 2.840003589316E+03
 -8.283823716428E+00 1.801251664998E+00 -8.178384525528E+01 3.081358128380E-01 -1.067094161326E-01 -8.685155287048E+00 -2.650397699956E+01 1.802063546783E+01 -8.961077071092E+01 -4.020266979787E+00 2.433166706480E+01 -8.596064559061E+01 4.535905867952E-01 1.846564161888E-01 -7.677021802514E+00 -4.613511633446E-01 -3.775700859877E-01 9.224899982596E+00 3.820527818875E+01 -4.404948863942E+01 1.998661799198E+02
 1.968797990017E-01 6.638041046341E-01 5.001099544855E-01 -1.219174852732E+03 -4.211727801464E+02 -1.145365666614E-01 3.647555617967E+00 -9.421329736089E-01 1.079194027760E-01 -1.227732865910E+03 4.339908440306E+02 -1.683193908302E+01 -1.267048344854E+00 -4.897086102549E+00 5.662047251786E-01 3.680989600370E+01 5.885211360418E-01 3.407818049088E-01 3.893774744560E+01 3.620641877774E+00 6.075338316177E-01 2.805020542560E+03
 2.562275280944E-02 -2.080513307178E-01 -2.702965411153E-01 -4.237603797398E+02 -7.037872414264E+02 7.551669915770E+00 -2.762262301509E+00 4.623013631653E-01 -1.051523662192E-01 4.348377735082E+02 -7.359981005053E+02 1.514360505027E+01 4.575354692259E-01 2.863021880071E+00 -7.369976951687E-02 -6.628817395893E+01 -3.777205666864E-01 -6.349919715986E-01 7.234533064907E+01 -2.753107651228E+00 1.431959612090E-01 8.140415292910E-02 2.806684540449E+03
 -1.768197168755E-01 -1.166547676821E-01 -9.186137022115E+00 4.704213951499E-02 7.554579321951E+00 -8.174300865666E+01 -2.717205836417E-01 5.315078475897E-01 4.604083008392E+00 -1.660569749963E+01 1.577085351133E+01 -8.485210532967E+01 5.931945373711E-01 1.628777075987E+00 5.376830760443E+00 8.818486711311E-01 1.269748832975E-01 9.114869934651E+00 -5.201339894931E-01 -6.933207476040E-01 1.075000435370E+01 1.956587738116E+01 -4.770967261861E+01 1.971515619370E+02
 9.302024209343E+00 5.867604461110E+00 -2.069638506054E+00 -2.603642251109E-01 2.655192139063E+00 8.571368691083E-01 -1.137879545359E+03 -4.192412213901E+02 -1.357867695628E+01 1.022388993145E+01 -7.008954818539E+00 -1.752755088820E+00 -4.919525409260E+02 -1.400286472913E-01 3.241984763738E+00 -1.850418230183E+00 -1.629079714642E+00 7.533416461043E-02 -4.275599184940E+01 -2.426255313345E+01 1.584878297024E+00 -6.819894977573E+00 5.660556615555E+00 -1.021172653615E+00 2.709141918119E+03
 -2.304577982262E+00 -3.193401121739E+00 -1.039042528470E+00 -3.203760134489E+00 1.312625128326E+00 -3.211873549339E-01 -4.366131884682E+02 -6.923842076791E+02 4.226023450194E+00 -4.235266301985E+00 1.678158039495E+01 -2.817836026338E-01 3.194241714529E+01 -1.611424542030E+03 3.423416944719E+01 -5.926585281595E-02 -2.857619401427E+00 -1.243085939530E+00 4.767312968702E+01 4.208465780486E+01 -1.301590383682E+00 1.163904040547E+01 -7.766284280285E+00 -2.051767934713E+00 1.146914639086E+01 2.890111088720E+03
 -9.837198977587E-01 5.759238731461E-01 7.673886100455E+00 -1.253471863084E+00 5.456984331712E-01 -1.002853923668E+00 -1.009286739580E+01 6.097529688051E+00 -8.043115194649E+01 2.576949881892E-01 1.488261560928E+00 -9.023297380532E+00 -5.756951460896E+00 4.236790296182E+01 -8.099211202101E+01 3.972528108762E-01 -3.398570526278E-01 1.883418229426E+00 3.092986310066E-01 -2.343737224177E+00 7.625672712505E+00 9.809255391253E-01 -8.062984485587E-01 -3.889026277250E-01 4.476604307088E+01 -6.986795370055E+01 2.009260654645E+02
 1.566783268418E+00 7.734648060023E-01 -1.441329442603E-01 -9.775685865506E-01 1.153803319211E+00 -1.934196309611E-01 9.363464909558E+00 5.545798044516E-01 7.714401151128E-01 -1.189000388308E+03 -4.173165364652E+02 -3.162488793103E+00 -1.336844312706E+03 4.870537421670E+02 -2.441069322500E+01 -2.275671860441E-01 -1.668888497167E+00 -9.771950900939E-02 3.633589865650E+01 -2.822789933177E+00 -8.802925021428E-01 -1.741827616992E+01 -3.400337444126E+01 -5.929047899061E-01 3.427874776124E+01 -9.469137620611E+00 -7.027762231064E-01 2.877733188811E+03
 -6.682540479034E-01 -3.860879904661E-01 -4.234611541385E-01 -2.330969680756E-02 -3.755416147812E-01 1.015847697953E-02 -3.565890174956E+00 8.800833542702E-01 -1.216891700717E-01 -4.130365172504E+02 -7.047516469117E+02 7.174881582113E+00 4.850226735416E+02 -8.169497132853E+02 2.100619104697E+01 1.816118661609E-01 2.697358628590E-02 -3.998329710584E-01 -6.587651714166E+01 -1.741521275342E+00 -9.854905132061E-01 3.486011918077E+01 5.801645652792E+01 -1.066639425586E+00 8.928234642263E+01 -2.632550418835E+00 -1.079349577858E-01 -8.865403852060E+01 2.842751480087E+03
 -2.333056071067E-01 -3.577613239495E-01 2.139894813546E+00 4.998401373954E-01 -2.953406486211E-01 5.310701272841E+00 -1.645747612746E+00 -2.605112910159E-01 -1.196505378771E+01 -3.462135993718E+00 6.269556220523E+00 -8.385158690676E+01 -2.372253726324E+01 1.877235774588E+01 -7.608753699923E+01 8.358361361078E-02 -3.565562929585E-02 -1.021672311913E+00 2.040933236140E+00 1.474399158750E-01 1.320458224625E+01 -8.066885630181E-01 -8.171439585965E-01 9.701656057635E+00 3.004931318217E+00 3.249129808452E-01 4.170686620158E+00 3.101341686103E+01 -5.235418161040E+01 1.899751217699E+02
 1.006639362339E-01 8.623975570116E-03 -1.176590760042E-01 3.706234360798E-02 -4.600100314479E-03 -5.540982727103E-02 1.999510661733E-01 -7.850212537038E-02 -3.187867451468E-03 3.186060402174E-02 -6.545633369620E-02 1.188353974852E-02 -5.050993357360E-02 -1.440976433034E-01 3.394826872541E-02 -7.346350183781E-02 -5.863016510086E-03 -2.124900059337E-01 -2.119793961936E-01 1.230634234179E-01 -1.298230047007E-01 -4.593829389418E-02 3.845155155709E-02 -1.365042364742E-01 -1.145386540506E-01 2.368881363382E-01 -1.145376202506E-01 6.969399016998E-02 7.076779296158E-02 4.693853890777E-02 2.810515230091E+03
 -3.071418004915E-02 1.478527646158E-02 -4.988324153322E-02 5.760844874479E-02 -4.975258646099E-02 5.082698370053E-02 -2.057763798525E-01 -3.098585672034E-02 -3.363644842084E-02 -7.703016018986E-02 -2.917244198017E-01 2.713961750498E-02 -5.162900088960E-01 -2.939156709424E-01 4.471575872898E-02 6.350352289708E-02 4.832964205691E-02 9.294124630129E-02 -1.057482564005E-01 2.311599750689E-01 -8.230542691352E-02 -1.809540582697E-01 1.157235749359E-01 1.813764363071E-02 4.786863716370E-01 1.059734911753E+00 1.365349655262E-01 6.109851980154E-01 6.022748556425E-03 -4.119146507469E-02 2.336385800226E+00 2.799752188445E+03
 2.121192467452E-02 -7.662084856446E-02 7.860240743155E-01 8.116108977412E-03 5.192791751494E-02 -3.110599035982E-01 1.154626601050E-02 -9.613077121468E-02 -9.768520686811E-01 -2.086116375536E-02 -1.217622480204E-01 -7.446096895298E-01 -1.599424725314E-01 -7.908543979825E-02 1.118450316612E-01 7.642870666707E-02 4.967914632786E-02 5.462882093482E+00 -1.394008233516E-02 1.618793376288E-01 -8.361678166731E-02 1.880961459311E-02 6.426073436592E-02 -4.221970762239E-01 2.057922113957E-02 3.229611785043E-01 1.838689703709E+00 2.765923886586E-01 7.449225819240E-03 -1.392185392995E+00 -6.904323735955E+00 -2.746128447458E+01 1.949108356280E+02
 -9.275076665937E-02 -7.856132456637E-02 1.077130615276E-01 1.356920577563E-01 -1.276611681933E-01 -3.247718821827E-02 -5.493312844998E-01 -3.585855529264E-02 1.396023042828E-01 6.992949244113E-04 -1.709185675816E-01 5.135520971128E-02 -1.424664124683E-01 -1.673953737673E-01 -2.942993743490E-01 1.910359278784E-02 8.118305732152E-02 3.076360729390E-02 1.503873055365E-01 2.058815123033E-01 -9.387111172030E-02 -1.224852427571E-01 9.733406021307E-02 -1.242671497676E-01 5.781460932853E-01 5.218001022280E-01 8.159450163679E-02 1.342642913049E-01 2.776918738787E-02 -1.649562370792E-01 4.168531938631E+01 7.163686130477E+01 -1.176704053565E+00 2.783470091824E+03
 -1.768626706865E-01 -9.145050467024E-02 2.019501795553E-02 1.644082611683E-01 -1.106814110764E-01 -3.729996853628E-02 -8.695862404689E-01 6.633004334321E-02 -1.044086640244E-01 -7.426772766705E-02 -2.893462106667E-01 -5.096857940569E-02 -5.066449619372E-01 -3.305195918871E-01 7.477580013957E-02 5.724625056715E-02 1.109387944008E-01 2.536137712080E-02 2.072582537354E-01 2.363038916360E-01 4.197601150542E-02 -1.801223137241E-01 8.963801510410E-02 3.649389490014E-02 1.363998129048E+00 1.055001696253E+00 -8.303015406611E-02 5.328394007988E-01 -2.388903291250E-02 1.248131311018E-02 -1.036229657384E+00 -1.862546844509E+00 1.070727263689E-01 2.776878992703E+02 2.858022213438E+03
 -1.491422758647E-01 1.799421789904E-02 3.656409392295E-02 -2.469241505686E-01 1.492205620353E-01 1.388546726384E-01 -3.344276663709E-01 2.719514957524E-01 -5.143141552306E-01 1.216673008108E-01 6.955138817503E-01 -3.965817182346E-01 4.745496617253E-01 1.160970077549E+00 3.701998685209E-01 -1.293966238990E-02 -5.797994673645E-02 3.466224872506E-01 3.580153737539E-01 -6.740616111684E-01 1.198792783500E+00 4.515698762893E-01 -4.744580128520E-01 1.073843791955E+00 -2.866510509196E-01 -1.792886911721E+00 -1.039849642414E-01 -6.971261345354E-01 -4.708476590189E-01 8.204537075088E-01 -2.232970707052E-01 -8.101603528015E-02 1.074145256115E+01 -1.092017179677E+01 -3.635685323969E+01 1.503052708342E+02
 -2.019637942156E+01 -3.430413019482E+01 -2.064188071651E-02 3.838278793426E+01 -2.948148002241E-01 3.931866935214E-01 -5.645739095482E-02 -2.480433361725E-01 -2.566012576303E-02 9.859584225515E-02 -2.505019694066E-01 1.506638812359E-02 -2.177461202791E-01 -2.960061545919E-01 -5.861901098459E-02 -1.247026286325E+03 -4.336501430881E+02 -1.274292087187E+00 -2.488497388184E-01 2.985837719042E-01 -4.218503466067E-01 -3.081913109375E-02 -1.905081900400E-02 -1.238571760967E-01 2.589856929612E-01 8.025914875746E-01 -1.970964221232E-01 3.715409099334E-01 3.707361024014E-02 -1.780382540980E-02 -1.932433559668E+01 3.418093831265E+01 -2.808190404856E-01 -2.150123176008E-02 -8.399775075819E-03 -9.713199351590E-02 2.776843647404E+03
 3.543373166687E+01 6.067005426757E+01 -2.732484434622E-01 -6.758327949038E+01 1.410496253265E-01 -2.417525118849E-01 -2.137400250108E+00 2.590138717269E-01 2.404653172760E-02 -4.258712787091E-01 -6.651861458367E-01 1.293964687487E-01 -1.504939457412E+00 -4.167808441214E-01 -1.120326403385E-01 -4.381287962954E+02 -7.227872997036E+02 4.237682200041E+00 6.627049955516E-01 3.872076863590E-01 7.240932075248E-02 -5.155417805806E-01 3.068437188928E-01 4.710051649404E-01 2.992571239676E+00 2.674310133515E+00 6.190626951960E-01 1.711640056780E+00 -2.094959923704E-01 -3.044649042115E-01 -3.234679649391E+01 5.708811594292E+01 -6.424817353572E-01 -1.514375115361E-01 -1.897336407373E-01 2.410218253961E-01 1.859921520785E+01 2.804631021544E+03
 -3.540611436573E-01 -1.033961234383E+00 9.809665432575E+00 1.302559890209E+00 8.656550000027E-02 9.107484018897E+00 4.772311726768E-01 -2.096707707557E-01 8.577619340539E-02 7.126208681242E-02 -1.491390660356E-02 3.884831834922E-02 -6.546470238185E-02 -2.796778258959E-01 -1.140702891724E-01 -1.607371078170E+00 4.697279995102E+00 -8.306349171815E+01 -2.931321190591E-01 3.388392323968E-01 4.623807669648E+00 -2.035861130524E-01 3.130699573676E-02 4.516155248763E+00 -7.542150134049E-01 7.578142954161E-01 -1.364796655242E-01 7.086987052564E-02 2.745378167803E-02 2.012463858647E-01 3.350287753090E-01 -8.888617538285E-01 8.686740182328E+00 1.152086836629E-01 6.938970348965E-02 2.322443118450E-02 8.191734158032E+00 -2.098615910138E+01 1.913013565528E+02
 -2.010381425515E-01 -9.833381264498E-02 1.198769382061E-01 -1.864555332263E+01 -3.163214191823E+01 2.806931515848E-01 -1.118571647639E+00 1.465423675442E-01 -1.417533285130E-02 2.374256038628E-03 -5.038261865062E-01 -2.979219542571E-02 -7.674718372141E-01 -4.968415437394E-01 -1.306228719733E-01 -8.204917268707E-02 3.025775570939E-01 1.846054693041E-01 1.492654248407E-02 6.289269178434E-01 1.272519424269E-01 -4.191223143682E-01 1.934480082501E-01 2.985759680350E-02 1.290128779133E+00 2.219385337380E+00 1.510209453903E-01 8.203254669163E-01 -2.160157519651E-02 -7.347191279773E-02 3.937290228296E+01 -6.942174269546E+01 1.001308727384E+00 -2.298848516283E+01 4.026269914666E+01 -3.261157916094E-01 3.993036606284E+01 6.671453488175E+01 -1.016833397419E+00 2.771829907699E+03
 4.331193135590E-02 -3.431584994581E-02 1.724732313442E-01 3.354481291974E+01 5.560635380213E+01 -7.127935676120E-01 -1.392869495130E-01 -1.152867310820E-01 -1.106074307677E-01 9.491036522069E-02 -3.086870420956E-01 -1.128161159188E-01 -2.193111019685E-01 -3.200091568912E-01 4.648514475893E-02 2.025666690935E-01 1.727872281964E-01 1.056337269405E-01 -1.423440447542E-01 4.189074536044E-01 -1.547431129978E-02 -1.271584564074E-01 6.338925830503E-02 6.700218449489E-03 1.614169047951E-01 9.469411393304E-01 -3.710641298438E-02 2.984888770498E-01 1.596951390021E-02 -9.197930928131E-03 -4.711075144343E-02 1.208168039940E-01 1.049648800048E-01 -4.213780544178E+01 7.398018791097E+01 -7.705563145010E-01 -1.866078406491E-01 -3.171564272353E-01 9.552819024759E-02 -3.841457099441E+01 2.757084366303E+03
 2.169702098543E-01 1.068366121077E-01 -8.459039598640E-01 -4.909019365110E-01 -1.219602206748E+00 8.572327635551E+00 1.970228794160E-01 2.601656507460E-02 1.380667316979E+00 8.216323848644E-02 1.253197125120E-01 9.835983172311E-01 1.986410382984E-01 3.290606959120E-01 -5.095180001021E-01 -3.721075232976E-01 -3.557796984865E-01 -9.996906275959E+00 -1.395821150915E-01 -1.292773631795E-01 1.935181215077E-01 2.502830286347E-01 5.693383345766E-02 4.954991547920E+00 -6.224497080275E-01 -4.498314805683E-01 -1.824266087146E+00 -2.775024289409E-01 -1.811865418835E-03 1.609408459006E+00 -1.831342143331E-01 1.912336324845E-01 8.276880641635E+00 6.335850516798E-01 -1.107411150594E+00 1.273829258735E+01 -7.649028281452E-02 4.621409172959E-01 8.956179551032E+00 -1.433250509482E+00 -3.311701555263E+01 1.867436772257E+02
 8.549510251065E-02 5.506935485494E-02 -1.044265701255E-01 -9.614361419704E-02 1.012444874280E-01 5.754975098425E-02 6.511371923650E-01 -1.432552383101E-02 -1.469624924690E-01 7.615746326090E-02 1.252635539661E-01 -7.689507986191E-02 3.240746032973E-01 8.775756392972E-03 2.716073960302E-01 2.807747402357E-03 -9.450978486253E-02 4.597591810779E-03 -1.434473434334E-01 -1.604803067825E-01 1.102309232144E-01 9.931556984850E-02 -4.424061615549E-02 6.950403166413E-02 -8.322513543906E-01 -4.923453838083E-01 -2.511407714947E-01 -3.545183270123E-01 2.972516267197E-02 1.765902586451E-01 -1.233824566024E+03 4.343801396759E+02 -1.508000627978E+00 -5.071564643846E+02 -1.754903446605E+01 1.688132482833E+00 -1.131541842300E-02 1.071201625652E-01 -1.627288482879E-01 7.616680288378E-02 1.039094609959E-01 6.969851253585E-02 2.843266466186E+03
 2.375665329609E-01 7.818176829754E-02 -5.686109762888E-02 -1.676192311648E-01 1.032463999522E-01 3.799858224779E-02 1.099822501496E+00 -9.247268481264E-02 -1.855091042432E-02 1.333030258143E-01 3.432006970271E-01 -4.188517206200E-02 7.686223968637E-01 2.424619544344E-01 1.357556258881E-01 -7.085946957681E-02 -1.228926228771E-01 2.043765654423E-03 -2.087335160462E-01 -2.687036909051E-01 3.385609370705E-02 2.352621382370E-01 -8.398125760176E-02 -1.214370766686E-01 -1.550249747042E+00 -1.412785120275E+00 -2.720872684340E-01 -8.556088362702E-01 8.759271194956E-02 1.515421699662E-01 4.364270727912E+02 -7.322906689686E+02 6.114612828921E+00 -2.751912825640E+01 -1.541095711423E+03 1.936197789907E+01 1.679040517656E-02 1.665827809633E-01 1.120632458035E-01 1.633244533719E-01 -3.131246105981E-03 -4.211296462480E-02 2.901372477880E+01 2.892035199207E+03
 7.680980952425E-02 -1.832587514764E-01 -1.639539913594E+00 5.001095140644E-01 -3.054983212037E-01 4.877426320929E-01 -4.185715966782E-01 -3.059669188921E-01 7.816793248875E-01 1.075433218730E-03 -7.967653095618E-01 8.003843429225E-01 -4.590390434711E-01 -1.856513328726E+00 7.587478988965E-01 -3.128307409777E-02 1.364137300264E-01 -1.695972235836E+00 -1.800907687965E-01 6.533370014887E-01 -1.189643392532E-01 -5.231693440232E-01 4.691451048466E-01 -1.630731495913E-01 2.008101274208E+00 2.120007131921E+00 -4.129746730023E+00 3.133235782257E-01 5.065277717776E-01 2.550412507089E+00 -1.663837044482E+00 6.003185859356E+00 -8.664343555229E+01 1.786498205798E+00 1.934580330838E+01 -7.747563537205E+01 1.478909270327E-01 -3.629470239409E-01 4.595515289436E+00 -2.040079006502E-01 -1.506831305086E-01 -8.890819084350E+00 -9.481747305606E+00 -3.466602434522E+01 1.872624108578E+02
 -1.820692742479E-01 -2.652673135895E-02 -6.246210999307E-02 1.085516143947E-01 -8.690470187290E-03 1.885366445219E-01 -5.891217337854E-01 1.103384661907E-01 -1.773052776839E-01 -1.566736482990E-01 -2.235110303435E-01 -4.552968241344E-02 -5.130280026394E-01 -3.086443562135E-01 1.765710230340E-01 -1.956672402075E+01 3.469359898551E+01 -2.845060692561E-01 2.089216249315E-01 6.863100351396E-02 1.913085765708E-01 -1.739383839045E-01 1.646009905161E-01 1.954160581243E-01 9.936481544505E-01 1.002135851936E+00 2.282561440212E-03 5.057294055241E-01 -2.633700954732E-02 8.441505691523E-02 -1.223006299085E+03 -4.247819103878E+02 6.808468945842E+00 -9.604697826091E-02 3.183199530560E-02 3.902755932104E-02 -1.173462875135E+03 4.236881072637E+02 -5.827236853966E+00 -4.722407535433E+02 -9.316249374374E+00 6.621986391442E-01 -1.960458171132E+01 -3.383626590108E+01 3.322179703441E-01 2.753377442511E+03
 2.540741201258E-01 -2.757794280377E-02 -6.138190478210E-02 1.273551355331E-02 9.203447298502E-02 -3.505083515254E-01 1.163374233328E+00 -1.907997943859E-01 3.741649440291E-01 1.965150387556E-01 3.070722587569E-01 1.542717808965E-01 9.133232430419E-01 1.141792193026E-01 -4.127734855385E-01 -3.313095262500E+01 5.816060002895E+01 -5.776648179034E-01 -2.510669875776E-01 -1.626133075178E-01 -1.561498599236E-01 1.626152152448E-01 -1.504537024299E-03 -3.854687623854E-01 -1.876539534430E+00 -1.379093646748E+00 -1.759700920496E-01 -1.091176644800E+00 2.087885042757E-01 -6.573676165141E-02 -4.280593563413E+02 -7.120297533853E+02 8.366204253057E+00 2.391526014972E-01 1.567581387930E-01 -4.188145836922E-01 4.252721467923E+02 -7.160952390998E+02 7.471568930049E+00 1.767911783464E-01 -1.496955237178E+03 1.757638279232E+01 3.440473736092E+01 5.958331739813E+01 -2.610441619035E-01 3.278949507364E+00 2.807414404739E+03
 2.269431469988E-02 1.231343453276E-01 4.920849462348E+00 -5.225435137996E-01 2.751871420245E-01 -8.819882118966E+00 4.742196615194E-02 2.645709995586E-01 -2.919667647644E-01 -3.652328134753E-03 6.114005185062E-01 -2.823740735777E-01 3.023536670792E-01 1.193672067941E+00 1.581183571638E-02 2.710463415934E-01 -5.048435624341E-02 9.454207393240E+00 2.085730101694E-01 -4.675747879471E-01 7.147139173352E-01 4.386692366160E-01 -4.739597083144E-01 7.896841275427E-01 -8.597253321755E-01 -1.444724426522E+00 8.663292899386E-01 -3.460746448617E-01 -4.300626878256E-01 -4.092806563289E-02 6.913019554037E+00 8.087637750310E+00 -8.219603834869E+01 1.191430969944E-01 -6.839320338905E-02 -9.892841046449E+00 -6.223337375082E+00 6.872981276589E+00 -8.054417292981E+01 5.030592694674E-01 1.808004223353E+01 -8.264156129446E+01 -3.629878541072E-01 -3.651535952371E-01 9.042206088520E+00 -1.334725580307E+00 -3.283984292766E+01 1.914840300740E+02
 2.459105356112E-01 5.479665059751E-02 -1.415154455004E-01 -1.708008060688E-01 1.250195277403E-01 7.010483312705E-03 1.154954609003E+00 -1.860055600658E-01 -1.396135278276E-02 1.324811078684E-01 3.999447256051E-01 -1.898897331913E-02 7.253905312845E-01 3.607629158935E-01 -3.691159338720E-02 -5.388088320856E-02 -1.763513518229E-01 -9.428373484942E-02 -2.655328044391E-01 -3.803137517945E-01 -1.627065911904E-02 3.110010565281E-01 -1.408459702084E-01 -7.737719484963E-02 -1.615922359057E+00 -1.530374223697E+00 -1.047351958928E-01 -7.871571142633E-01 5.632840235622E-02 1.091128803455E-01 -3.838551562609E-02 8.381369730904E-02 4.078113614511E-02 -1.506670957005E+03 -5.276502712569E+02 1.071349266678E+01 1.023348654345E-01 2.274097016327E-01 1.984230168468E-02 -1.277189033092E+03 4.355499178318E+02 -4.263286012679E+00 4.869599445357E+01 -1.305414363042E+00 -3.345286227126E-02 3.948263524114E+01 -2.433096014422E-01 -2.144464594557E-01 3.074095871417E+03
 -2.030672871663E-02 1.342057227650E-02 -7.806209485145E-02 5.865150501606E-02 -5.921522448622E-03 9.053194887036E-02 -7.807291936033E-02 8.252902686006E-03 -2.990241447527E-01 6.854925417095E-03 -2.810550711606E-01 -1.478307006235E-01 -3.995153854792E-01 -3.626878763875E-01 3.745115402357E-01 1.358284202491E-02 6.302228522704E-02 4.812083520896E-02 -1.867256856561E-01 2.559721540972E-01 1.757651786788E-01 -1.923500878453E-01 1.019061123214E-01 1.223188786679E-01 2.494676869290E-01 1.091029396559E+00 -9.520178006415E-02 4.497311925824E-01 2.053554943374E-03 1.892046914200E-01 -2.717187942246E-02 1.926456828707E-02 2.055922612855E-02 -5.375183054556E+02 -8.652269499362E+02 1.206998690893E+01 -1.884902290276E-02 -4.055068717521E-02 -6.094171219693E-02 4.203542508110E+02 -7.258872311609E+02 7.807781720673E+00 -8.585454946724E+01 2.193440134421E+00 2.072358101693E-01 7.197654836621E+01 -2.720685103181E-01 -5.561418704097E-02 8.993440359805E+01 2.538422970006E+03
 2.711129568803E-02 1.096067230746E-02 4.532348352804E-01 5.507931952860E-02 5.828684522520E-02 4.334884704562E+00 1.288090401439E-01 -9.516770866656E-02 -5.022952645979E-02 -7.474740314515E-02 -1.263169109431E-01 -7.921638032405E-02 -4.721551915305E-02 -1.242562080596E-01 -4.089965719268E-01 1.779601289741E-02 -6.293754073034E-02 3.195444709588E-01 -2.342983212323E-02 1.050643267245E-01 -6.751478379252E-01 -6.893232467484E-02 1.384661687528E-01 -6.733482740591E-01 -8.733351255079E-02 1.413507755242E-01 1.174689283206E+00 1.997020838726E-01 1.416342717822E-01 -1.251566792238E+00 5.955615047113E-02 -6.173344696079E-02 -9.818458099839E+00 1.074000798951E+01 1.182035559755E+01 -7.063426595190E+01 1.721536677890E-02 4.978195631815E-02 4.554685922472E+00 -3.728739997241E+00 7.578652999625E+00 -7.698816112505E+01 1.060107967766E+00 1.970554281383E-02 1.027628102811E+01 -9.935852175255E-01 1.975556822434E-01 9.633266507954E+00 -7.217363195160E+00 -3.118845316635E+01 1.515423633170E+02
 -2.776493427240E-01 1.376211828628E-02 4.452589795131E-01 -1.227458398592E+03 4.455115280436E+02 -1.142338680336E+01 -1.081570972555E+00 -6.093850270956E-02 -9.833987160661E-02 2.490668864106E-01 -5.425202405009E-01 -1.835400725578E-01 -9.641703556747E-01 -1.585693665117E-01 -2.386157403693E-01 4.079263153055E+01 4.844390240507E-02 6.746411617667E-01 -1.080696122227E-01 5.732156159498E-01 4.378675014342E-01 -2.024518471488E+01 3.532998071386E+01 -1.266625487774E-02 6.091214580694E-01 2.336118950728E+00 1.151225548514E+00 1.182516799138E+00 -3.071540466439E-01 -1.407624890116E-01 -5.546672642655E-02 -1.517038687573E-01 -3.825663047136E-02 -9.611846803838E-02 -1.397643611179E-01 5.730223516571E-01 -3.153126756145E-01 -2.818638491592E-01 1.034777604425E-02 -1.139125466134E+03 -3.896099278469E+02 4.335686528465E+00 8.765954254266E-02 1.617814962284E-01 -6.964248494492E-01 3.662611037032E+01 6.478212685064E-02 5.056732373295E-01 -1.759352471298E+01 -3.251582479841E+01 2.307443685441E-01 2.730784259557E+03
 6.110002742281E-01 2.620454223065E-01 -5.784364264545E-01 4.543646273363E+02 -7.424881960096E+02 1.288957057357E+01 3.162331772935E+00 5.133861098128E-02 -2.108190729218E-01 6.530124996472E-02 1.697786236270E+00 -4.957811427594E-03 2.346832526651E+00 1.327805705189E+00 5.964962121936E-01 6.679549254992E+01 -1.110012216492E+00 4.896286695999E-02 -2.793040883400E-01 -1.874007967921E+00 -1.058708276235E-01 -3.252797534457E+01 5.904453321064E+01 -1.290265231906E+00 -3.553177192779E+00 -6.175605212963E+00 -1.224217186971E+00 -2.767328694417E+00 2.595554575683E-01 5.122529457001E-01 1.606052567198E-02 3.045048976488E-01 8.049249234353E-02 9.860497240676E-02 3.022939044116E-01 -3.263452933574E-01 3.486820054874E-01 8.895058842889E-01 1.901960144991E-05 -3.876284805177E+02 -6.680765283482E+02 9.060542362070E+00 -1.161608022048E-01 -4.330094808117E-01 6.147801503256E-01 -6.478179680727E+01 -4.179627439762E-01 -5.283571004406E-01 3.111759303873E+01 5.776144923153E+01 -4.988506863717E-01 -1.070313126341E+01 2.818999979512E+03
 -1.816076804805E-01 1.402459210244E-01 4.811692759050E+00 -1.228454997678E+01 1.279371562863E+01 -8.301848561033E+01 -2.917496940915E-01 -3.886077080548E-02 -5.922204086975E-01 1.334739713923E-01 -7.243806252589E-02 4.279856905056E+00 -1.351292008934E-01 -3.157160088834E-01 3.499085500977E-01 -3.415118033503E-01 6.888942732287E-02 9.161136588019E+00 3.094055636643E-02 -6.506305367308E-02 1.403744015191E-01 2.253744712953E-01 -3.856749243118E-01 9.351413258621E+00 7.699768262365E-01 2.057837746015E-01 2.012910278179E-01 7.615650067027E-02 1.048877123085E-01 -1.696684070244E-01 2.361544194122E-01 1.761279771847E-01 4.646829009041E+00 -2.047739173209E-01 1.958984965087E-01 5.400480793579E+00 -1.170034772257E-01 -4.210053466469E-01 -8.887671598896E+00 4.826921704401E+00 8.571486705518E+00 -8.091151306083E+01 7.359735511033E-02 -2.282785570549E-01 -3.927084923652E-01 5.892372426414E-01 3.420705036836E-01 8.080419128942E+00 -3.647250121281E-02 -4.064780842905E-01 9.765513499448E+00 7.615325738730E+00 -5.065609534559E+01 1.873972931832E+02