#BIOSYM hessian 1
@Type: Hessian Update
@Units
 distance: 	A
 energy: 	Kcal/Mol
#header
@natom 71

#label
C1      C2      C3      C4      C5      C6      C7      C8      C9      C10     C11     C12     C13     C14     C15     C16     C17     C18     C19     C20     C21     C22     C23     C24     C25     C26     C27     C28     C29     C30     C31     C32     C33     C34     C35     C36     C37     C38     C39     C40     C41     C42     C43     C44     C45     C46     C47     C48     H49     H50     H51     H52     H53     H54     H55     H56     H57     H58     H59     H60     H61     H62     H63     O64     H65     O66     H67     H68     O69     H70     H71

#element
C  C  C  C  C  C  C  C  C  C  C  C  C  C  C  C  C  C  C  C  C  C  C  C  C  C  C  C  C  C  C  C  C  C  C  C  C  C  C  C  C  C  C  C  C  C  C  C  H  H  H  H  H  H  H  H  H  H  H  H  H  H  H  O  H  O  H  H  O  H  H 

#matrix
213
 2.803998622523E+03
 -2.008698919700E+01 2.812026156783E+03
 3.402021871833E+00 1.704964288556E+00 1.928186105806E+02
 3.988219263595E+01 6.511420069312E+01 -3.282581160385E-02 2.785012091345E+03
 -6.970521755564E-01 -1.107423910322E+00 9.179038129829E-02 -4.219945043024E+01 2.734328144948E+03
 2.986188561054E-02 3.069197331391E-01 8.512309043973E+00 4.342775102589E+01 2.481654765817E+00 1.900254603343E+02
 -1.916068504610E+01 3.511704172089E+01 3.075543590665E-01 5.390460154462E-01 -5.948845873889E-01 -2.494163745778E-01 2.827347709148E+03
 -3.257073728129E+01 5.985722125125E+01 3.710547377190E-01 -2.618916672516E-01 1.632329270466E-01 8.278071985290E-02 3.374733142915E+01 2.753950872178E+03
 -2.181176378066E-01 3.896059562477E-01 9.289597947388E+00 -8.901029038078E-02 2.247178789388E-01 8.881323137859E-01 -1.107361213058E-01 2.868529134968E+01 1.907746664756E+02
 3.844506948435E+01 -6.656034680811E+01 -6.441462280526E-01 -1.855575322273E+01 3.409020887555E+01 2.941193229702E-02 3.801841126269E+01 6.990487599867E+01 6.859546354489E-01 2.792316388663E+03
 -4.904512738298E-01 -2.983287200451E-01 -6.932503767759E-03 -3.228242263143E+01 5.922669473292E+01 5.604947793624E-01 1.280946791576E-01 -5.150730073790E-01 3.173210639692E-02 1.407598831221E+01 2.815046371925E+03
 -7.070814503254E-02 3.771516875575E-01 8.263593472931E+00 -3.466314768118E-01 8.305588516048E-01 9.151093462506E+00 -3.740748943004E-01 1.312746506357E-01 1.012697115254E+01 1.191256276977E+01 2.763860682118E+01 1.974012149763E+02
 5.309142615377E-01 7.215307340312E-02 -1.001808707703E-01 -4.704974403102E-02 1.256081381943E-01 -2.111954800676E-01 5.028733450314E+01 -8.495706178250E+01 -1.512935922006E+00 -2.012182536239E+01 3.744013523154E+01 3.271845358515E-01 3.174647157405E+03
 2.184358673576E-01 4.078577511657E-02 -2.270950925596E-02 -2.765308118233E-01 2.807316080487E-01 -3.990232836837E-02 -1.024419840616E+00 1.048913279026E+00 -2.312102281266E-01 -3.321083980951E+01 5.930308751082E+01 6.073911305699E-01 1.717993152370E+02 3.367621164320E+03
 -1.657690120930E-02 3.087608817637E-01 -1.255419423829E+00 5.696858663429E-01 -5.562527930186E-02 1.506617039260E+00 -3.747763115283E-01 4.924908157754E-01 1.181577920390E+01 -2.396985508135E+00 9.539710917563E-01 1.632020235253E+01 7.648329591091E+00 4.320609358099E+01 2.111605739270E+02
 -1.229080187129E+03 4.535489752880E+02 -2.282312478856E+00 -4.549076485165E+02 -1.733726852553E+01 -3.518127692883E+00 -5.204095010732E-01 -2.206626587580E-01 -4.752045166366E-02 -9.667983859036E-01 -1.028570287601E-01 -5.136820043671E-02 -4.802566799577E-01 -2.331268109757E-02 7.754416466015E-03 2.818927937134E+03
 4.466769369720E+02 -7.467684783746E+02 9.755265952817E-01 -1.388580861356E+01 -1.396006112902E+03 -5.254225512482E-02 2.222368737192E-01 -1.091366828694E-01 -3.474392949615E-02 -7.433083263619E-01 4.743205770824E-01 1.702763971542E-01 -4.060186877672E-02 -9.333951287728E-02 4.369093779710E-01 -2.326457136800E+00 2.744854912117E+03
 -2.156619935446E+00 7.140208726870E-01 -8.261459132690E+01 -3.774377168834E+00 2.071432124146E-01 -7.906988388551E+01 1.582840985013E-01 -1.639829819769E-01 4.834601998871E+00 3.466613205006E-01 -1.449729377394E-02 -9.687277111651E+00 -3.143199970840E-02 -5.392787498846E-02 -2.101367497764E+00 7.408928827981E+00 -3.006060137834E+00 1.906747832034E+02
 -1.213554503258E+03 -4.137716055579E+02 -1.690972645769E+00 -7.038015157749E-01 9.398663076798E-01 1.553558768816E-01 -1.238282951570E+03 4.420476776912E+02 4.794751736040E+00 -4.704464812820E+02 -1.277393733424E+01 -2.665264268731E-01 -1.694832515253E-01 -7.085163977448E-02 1.018618528717E+00 -1.902033061563E+01 -3.261644364827E+01 -2.845118026290E-01 2.808723572551E+03
 -4.121909806520E+02 -6.965417553702E+02 -2.694413150091E+00 7.679834386608E-01 3.224234287452E-01 8.011237021172E-02 4.518328525222E+02 -7.399651314315E+02 -6.651398947923E+00 -1.568123439189E+01 -1.461860132822E+03 -1.493176767562E+01 -2.034527326253E-01 -2.885154226323E-01 -1.536852899404E-01 3.484979961064E+01 5.949163855916E+01 2.489810792313E-01 -1.644522798048E+01 2.777463892257E+03
 -1.836107593995E+00 -3.019295787478E+00 -8.101134695327E+01 -2.394636494608E-01 3.193687489267E-01 -8.800098364343E+00 5.219499394067E+00 -7.139283322153E+00 -8.323261446872E+01 -2.224576731966E-01 -1.491868972807E+01 -8.421136409336E+01 -3.844035689461E-02 1.394388564668E-01 -1.448963404218E+01 2.665570603844E-02 -1.977607322041E-01 9.184726588714E+00 -3.340623652471E+00 2.441168100623E+01 1.939807605348E+02
 -1.186963939269E+00 8.183671038408E-01 -1.588898406722E-03 -1.200961023883E+03 -4.115542882875E+02 -1.809788615634E+01 -5.392965447781E-01 -1.144195030278E-01 -3.877338273915E-01 -1.198700829106E+03 4.406183851370E+02 -2.914836899983E+00 -6.534491515818E-01 -7.831933358135E-02 -1.003428491666E+00 3.489378560951E+01 3.925182973302E-01 7.785019302130E-01 4.129719383444E+01 -2.126989320822E+00 4.622516470091E-01 2.746436282849E+03
 1.716349119478E-02 1.996722027317E+00 2.424039426188E-01 -4.142391157333E+02 -6.893686726068E+02 -9.529225527064E+00 -3.513964171182E-01 3.608486750740E-01 5.832972678426E-02 4.405325154358E+02 -7.310542811342E+02 -5.333028835665E+00 6.891330035900E-02 -2.401841504839E-01 -1.437257667948E+00 -6.414625165290E+01 -1.065573388934E-01 -8.840813729334E-01 6.646934022814E+01 -2.439324602075E+00 7.799637146412E-01 -8.441693098075E+00 2.729883960317E+03
 2.026296759483E-02 -4.702225682922E-02 -9.042809194976E+00 -1.723796607406E+01 -9.207138950017E+00 -8.020066086403E+01 3.043074604061E-02 1.462042301557E-02 4.431785452236E+00 -2.802081640714E+00 -4.542652369946E+00 -8.023688653183E+01 3.076796833274E-02 -6.939241488456E-02 5.954499670339E+00 4.227998480314E-01 4.680329774838E-02 8.303596746827E+00 9.834775712526E-01 -1.241573481541E-01 8.452777049916E+00 2.267405107480E+01 3.127913412076E+01 1.875409198451E+02
 -1.025929699393E-01 2.202539733282E-01 -1.375739067948E-02 4.047857406611E-01 -3.384225884599E-01 -1.160488713390E-01 -1.263596265492E+03 -4.499453028223E+02 -5.713593578198E+00 -4.876797003962E-01 -7.275006526445E-02 -1.175633482141E-01 -6.050827655644E+02 -5.064583942398E-01 -1.036231666540E+00 -1.655788621707E-01 2.407001794317E-03 7.856647892736E-02 -2.109602228777E+01 -3.709052045059E+01 -3.354567100085E-01 -5.604160990280E-01 -8.406879126541E-01 3.808940636835E-02 2.648329846332E+03
 -6.486798088408E-02 -4.287435948590E-02 -2.491942933955E-02 1.599758802682E-01 -1.825877962333E-01 -9.338036445344E-02 -4.657363127180E+02 -7.772455827458E+02 -8.400922053392E+00 -1.286783666270E+00 -2.369586930439E-01 -1.381441693127E-01 -2.271630878805E+01 -1.801044120974E+03 -2.473197722469E+01 -2.106553243796E-02 7.948954607279E-02 1.151844698894E-01 3.640764107011E+01 6.186818994106E+01 7.210218088418E-01 8.455382137218E-02 9.455153097901E-02 -2.140591006112E-02 2.011073080043E+02 3.017448891070E+03
 6.651701071043E-03 -1.811987000002E-02 4.496518767967E+00 2.093914475551E-01 -3.921820991605E-01 -1.007197520559E+00 -6.106750830553E+00 -8.568958742819E+00 -8.054890032265E+01 -6.713366858900E-02 2.100149268005E-01 -1.111774347446E+01 -8.553609403055E-01 -2.401484233132E+01 -9.662511526530E+01 -1.356120167986E-01 7.954565863400E-03 7.557019414068E-02 4.402461107081E-01 4.134256257005E-01 1.003678587193E+01 5.134856597547E-02 -1.179349644579E-01 4.234648423389E-02 5.617233882469E+00 3.735301407809E+01 1.754167534502E+02
 4.922122404490E-02 -4.995582044436E-01 -4.112927144066E-02 -6.031868718260E-01 6.113704660961E-01 2.120869838510E-01 1.750542927936E+00 -4.748339298085E-01 1.605847843426E-01 -1.242441551028E+03 -4.374386834731E+02 -9.030493310565E+00 -1.221503291150E+03 4.292776889819E+02 3.984093320838E+00 3.474956929707E-01 1.075823379462E-01 -1.476546414942E-01 3.897286080633E+01 -8.909233888162E-01 -1.392240479765E-01 -1.950521139391E+01 -3.275538598167E+01 -4.529336651544E-01 5.047872263876E+01 2.667867359771E-01 1.052603691903E-01 2.837718888958E+03
 6.605822322197E-01 -7.320739843270E-02 -1.403110606434E-01 -7.021493440766E-02 4.201075236185E-01 2.799188336158E-01 6.887535041298E-01 -1.964594048033E+00 2.540124506371E-01 -4.382864802307E+02 -7.380034415263E+02 -8.671806479907E+00 4.334691890573E+02 -7.994641512519E+02 -7.051335932220E+00 -6.561102543786E-01 1.742667773149E-01 -1.795187948671E-01 -6.971082592912E+01 5.985715863539E-01 -7.116508538170E-01 3.509667475591E+01 6.033982523207E+01 6.732379036674E-01 8.229919069679E+01 -3.967183196127E-01 -1.555825517334E-01 2.452687984381E+00 2.970537653184E+03
 3.349413544663E-02 -1.968085284565E-01 4.641023739055E+00 -1.956100335242E-01 -3.194630927169E-02 3.998631287553E+00 2.035968904703E-01 -5.734912380196E-02 -1.093956290740E+01 -8.671040186619E+00 -9.398426339542E+00 -8.877180847510E+01 3.049049594305E+00 -8.386513194783E+00 -8.998208289067E+01 1.016373925261E-01 -8.861814009896E-02 3.144482622805E-01 -9.744072528001E-01 -5.315360188481E-02 1.001697016377E+01 6.845910166822E-01 5.980057922275E-01 9.139571379212E+00 1.539090026310E+00 -2.643234733236E-02 1.125941617943E+01 6.941243991867E+00 3.669679909739E+01 2.021817261564E+02
 1.190844046318E-01 -7.933422698534E-02 -5.165441456536E-01 1.225072082119E-01 -4.689924829940E-02 -6.227303514251E-01 2.948197859127E-01 -1.201983436660E-01 -7.862783485389E-01 1.965966726638E-01 -1.353398321749E-01 6.182756273891E-01 -6.383380832886E-03 -1.379371869823E-01 1.356574052156E+00 7.331488070128E-04 -4.206137359896E-02 -5.784391502147E-01 -1.476839213090E-01 -1.784016074763E-01 -8.247096528063E-01 3.864150516377E-01 -9.155806202789E-02 3.319133762898E-01 2.051035753741E-01 6.938846906499E-02 7.269156232973E-01 -2.683682958481E-01 -3.564895404925E-01 -3.233505306971E-02 2.856280645826E+03
 -1.002124944262E-01 1.233713273317E-01 1.429003364843E-01 6.127760354082E-03 1.299146522959E-03 -1.511784720348E-01 -1.562676485887E-01 1.407347876408E-01 -3.658858904575E-02 -2.312384946956E-01 -4.122509816255E-02 -8.082808281450E-01 3.165541110967E-01 2.231465613265E-01 -1.857397850763E+00 6.582104713307E-03 -1.612037961263E-01 3.448331275017E-01 7.702180825482E-02 7.659088380063E-02 5.388164439777E-01 9.376983548431E-02 1.106428842279E-01 -1.165031309289E-01 -1.496365989858E-01 -3.575803872469E-02 1.420573814465E-01 1.079277039103E-01 2.821106158915E-01 3.737394923391E-01 -2.519225297700E+01 2.695043768731E+03
 1.021339258886E-03 -2.087048075035E-01 1.405313392191E+00 -7.129321437410E-01 5.331702652525E-01 3.160890718356E-01 1.987646543239E-01 -4.487046065448E-01 9.138061305739E-01 1.437562044780E+00 -1.296727313544E-01 -3.877033617876E+00 -1.841870983365E-01 -6.601969245217E-02 -9.764386900246E+00 7.109024038069E-02 -2.185226606497E-01 6.191278025825E+00 -7.934304630337E-01 3.779298592287E-01 3.167279447701E+00 5.210847213272E-01 1.232602944546E+00 -1.212197836449E+00 1.491618801070E-01 2.974058634338E-01 3.113040439436E-02 -5.310688628446E-01 -7.935356884009E-01 1.266801032054E+00 1.606440615869E+02 -1.819472221878E+02 2.246143655171E+02
 5.372743771167E-02 -1.043087786299E-01 -1.388641722406E-01 -4.769961905195E-02 -1.715147469618E-01 -3.181505322882E-01 1.382815606117E-01 -4.514655771916E-02 -3.560759682086E-01 1.922100549114E-01 1.296804667884E-02 -3.331444079415E-02 3.601890520934E-02 -3.289759471903E-02 -1.672247114619E-01 -3.590726215051E-03 1.009182665437E-01 -5.677610757968E-02 -8.177728071552E-02 -5.140027767812E-02 -1.464471330120E-01 6.941097470654E-02 -7.247762762046E-02 7.326423940543E-02 5.448952891025E-02 3.407697085433E-02 3.871635867625E-01 -9.312336761697E-02 -1.150608624691E-01 1.129961508050E-01 4.774975952593E+01 8.006890148387E+01 9.279529207464E-01 2.711199841781E+03
 1.256567010443E-01 -1.421752502253E-01 -3.409045370329E-02 -3.215254848716E-01 3.820618123342E-01 2.554388258535E-01 2.810912117212E-01 -2.800028610638E-01 1.545291513197E-01 5.241158538721E-01 -3.045255122319E-01 4.542723488179E-01 -2.215863375168E-01 -3.397510889915E-01 1.090691091936E+00 1.775549365956E-01 -3.633455434850E-02 -1.455115929840E-01 -3.443908480786E-01 -1.906094923450E-02 -2.512197212627E-01 5.210633958805E-01 2.653729134660E-01 5.802975072564E-02 3.707793056568E-01 1.892868940701E-01 -1.920097879992E-01 -3.982953504802E-01 -2.743462153392E-01 -2.698972732286E-01 -1.178998815005E+00 -1.477640118361E+00 -3.200845677219E-01 2.547618243666E+02 2.938746438956E+03
 6.874334443961E-03 1.333228390687E-01 -2.831967640395E-01 2.232451462456E-01 -8.153081213506E-02 3.843420180110E-01 -1.613542131001E-01 1.332668769860E-01 2.373537581177E-01 -4.896329269714E-01 1.229431331230E-01 1.545426862142E+00 -1.171289979469E-01 -3.658195929055E-02 3.875611614955E+00 -9.681700832707E-02 7.869238490091E-02 -5.137009385955E-01 2.815552129996E-01 -6.371283732192E-02 -9.766592361352E-01 -4.029304107466E-01 -3.733002200055E-01 3.253706350072E-01 -7.257884151441E-02 -1.250101711919E-01 -5.547441925798E-01 2.375400309569E-01 3.119724607208E-01 -7.146475434157E-01 3.674696006341E+00 7.885801327292E+00 1.040759117469E+01 2.058263840828E+02 -5.274633476433E+01 1.673470173922E+02
 -2.047627134684E+01 -3.391421190000E+01 -9.032895706503E-02 3.652744555543E+01 -6.531480115015E-01 -3.640616824626E-01 -1.456923701896E-01 1.837664114090E-01 -3.185950606571E-01 -4.072162240750E-01 9.453200497619E-02 -1.546636538257E-01 4.045128032585E-01 2.122271737202E-01 -3.550949332093E-01 -1.252374528778E+03 -4.319090083636E+02 -2.283006479515E+00 1.020453320027E-01 4.518625404607E-02 -6.338640169624E-02 2.503531199465E-01 -4.118102801896E-01 1.272823630667E-01 -1.015384762576E-01 -7.615971921074E-02 3.318023455186E-01 6.640351669031E-02 3.562483584999E-01 1.583318616100E-01 -1.901454669043E+01 3.451804597787E+01 -1.215244590094E+00 1.803476374433E-01 -2.677296647608E-02 -8.199970044424E-02 2.769562969144E+03
 3.644736265771E+01 6.165104975862E+01 6.126520987403E-02 -6.665784539531E+01 1.016474152320E+00 2.700666694740E-01 -5.680401026523E-01 3.085604091957E-01 3.208243093984E-01 -8.087427467337E-01 1.455147631705E-01 -2.972726323238E-01 3.081847540223E-01 3.403853048876E-01 -3.604615966502E-01 -4.379715292293E+02 -7.192141423750E+02 3.732954961159E+00 5.189074042425E-01 2.769898798999E-02 3.743504508291E-01 -6.060893298959E-01 -1.788295398602E-01 -6.260284487121E-02 -3.635887340681E-01 -1.584187607942E-01 -4.762593858594E-01 5.167521195793E-01 6.604972434597E-01 9.870829192582E-02 -3.267122445459E+01 5.743999779823E+01 -3.996405730948E-01 1.620953232838E-03 4.034124631666E-01 -7.228542136543E-02 2.442495344485E+01 2.782167037318E+03
 -2.041622223094E-02 -1.529923022646E-01 9.992256691874E+00 -1.140632857383E-01 1.658883706948E-01 9.535470397488E+00 -4.018942062133E-02 -4.125039417892E-02 4.553366156068E-01 2.229925385609E-03 4.122835005265E-02 -7.327592277843E-03 -1.289440538586E-01 -5.408162137885E-02 3.767943794343E-02 -3.063143706280E+00 3.127046740602E+00 -8.276196105291E+01 -2.200057487626E-03 1.168621420642E-01 4.870881686701E+00 -1.659717938377E-01 2.696076324435E-02 4.260074564723E+00 -1.595562606602E-02 1.640184027160E-02 -4.461824488490E-01 6.024323956097E-02 6.151971082809E-02 -1.474558493609E-01 -8.083490170534E-01 3.365530898029E-01 8.500472920626E+00 -1.401567156188E-01 7.944512718695E-02 1.614585731529E-02 3.253030963868E+01 -3.545916924930E+01 1.912631001602E+02
 -1.402635219103E-01 -1.357102672011E-01 8.368333836922E-02 -1.864556046281E+01 -3.117822977048E+01 -1.184007978584E+00 7.705294190255E-02 1.219892903679E-01 1.421819527753E-01 9.959662958372E-02 -2.533757745993E-02 -8.160575672539E-02 1.414742367527E-01 7.485324845258E-02 -2.879565584082E-01 5.032128337537E-02 6.561753787953E-02 2.495319147747E-01 -8.099106666570E-02 1.430869782159E-01 1.309684953016E-01 2.858229630331E-02 5.128364863474E-02 -2.318991064522E-01 -7.273643577741E-02 -3.870050559950E-02 -6.086368263358E-02 3.863600363563E-02 3.346828774487E-01 1.695394858305E-02 3.879052769858E+01 -6.942836200355E+01 2.838429946707E+00 -2.326549813703E+01 4.087713431930E+01 -2.624783875439E+00 3.927969596900E+01 6.540095266575E+01 -8.537625747852E-01 2.805113058556E+03
 -1.803558737845E-02 6.883891525988E-03 5.978863485594E-02 3.356110129673E+01 5.537486813518E+01 1.741028483736E+00 -1.282803793649E-01 2.560206473591E-01 2.330063638035E-02 -1.930588261332E-01 1.137106875432E-01 -1.832223015506E-01 3.773932758134E-01 2.219293995450E-01 -2.945530981796E-01 1.123820157862E-01 1.216245187141E-01 -3.400206616373E-02 9.759280658628E-02 1.409021733925E-01 1.345229267144E-01 -4.331318057466E-02 -3.771395084314E-01 4.936067076740E-03 -1.642260374895E-01 -9.944643433842E-02 -2.287676577899E-02 1.617700291609E-01 5.787188636050E-01 7.163235927715E-02 -2.241320853667E-01 4.515701787039E-01 5.652128952783E-01 -4.219869633122E+01 7.411255768141E+01 -3.321710561140E+00 -2.102621226470E-01 -5.750872639171E-01 2.521811900394E-01 -6.988616724191E+01 2.749337735377E+03
 7.832839040581E-02 -4.997722482537E-02 -1.309527746734E+00 4.315567632138E-01 -5.513550295400E-01 6.417224273901E+00 2.513711981105E-01 1.599227765789E-01 -1.713008912104E+00 -4.983324489756E-01 -1.362204696530E-01 2.167583156248E+00 3.016391895382E-01 7.734470389268E-03 5.128465188727E+00 6.744619029556E-02 3.470142457551E-02 -9.907436947940E+00 2.485373789031E-01 -3.789796998316E-01 -2.350480407709E+00 1.896600853746E-01 -6.099671381104E-01 5.126053270286E+00 5.495634484229E-02 -7.561126381855E-02 1.276448980274E+00 1.403590371661E-02 7.796271439423E-02 -3.542332130458E-01 3.250938577464E+00 -2.653021173826E+00 4.740051141544E+00 -1.512983834506E+00 2.389761106908E+00 1.390927796489E+01 1.091727814029E+00 4.466599441268E-01 7.341213648190E+00 1.389834124491E+02 -6.106226987982E+01 2.012143409431E+02
 -4.289304767185E-01 7.047006210848E-01 7.825596983674E-01 9.389479542969E-01 -7.935818398011E-01 5.288307560101E-01 -1.306235063682E+00 8.856968966840E-01 9.926662198677E-01 -2.060706375354E+00 9.971745160552E-01 -1.586932192895E+00 6.294656443389E-01 1.015883394424E+00 -3.437254456187E+00 -5.462899853179E-01 -6.188305368193E-02 8.484584338666E-01 1.185217863815E+00 2.912977377190E-01 1.610465067334E+00 -1.866049813165E+00 -7.736957234242E-01 -5.435991792272E-01 -1.235091197258E+00 -5.694965609097E-01 -9.340165789267E-01 1.487873424949E+00 1.516020812201E+00 4.968476332125E-01 -1.297989713010E+03 4.572050394938E+02 -1.195895464303E+02 -5.094953831512E+02 -1.927379435004E+01 -4.481868006935E+01 -6.530127920994E-01 -7.586615355180E-01 1.834234237486E-01 -4.636304601865E-02 -4.736127480803E-01 -2.458710476491E+00 2.543085030878E+03
 1.862202762051E-01 -2.345256497084E-01 -6.715885842334E-02 -3.958835376277E-01 2.495117141021E-01 1.792095836286E-01 3.673609246803E-01 -3.793258733900E-01 1.021942849200E-01 7.963922709220E-01 -1.228089546952E-01 6.288055987018E-01 -4.879068842979E-01 -4.242966880400E-01 1.274802673408E+00 9.711396774311E-02 1.140183835373E-01 -2.047301270987E-01 -3.779465219977E-01 -6.690271758054E-02 -3.960759132377E-01 2.445744054544E-01 2.329901215433E-01 6.039824704106E-02 3.754718140012E-01 1.736055925429E-01 -5.723244288007E-02 -4.379636974294E-01 -6.742125922452E-01 -3.757544412652E-01 4.906830431817E+02 -7.607418502007E+02 6.865184954400E+01 -5.076333627927E+01 -1.650786326746E+03 4.212604141340E+01 2.120041353643E-01 4.942834565205E-01 3.922879373210E-01 -4.491418312017E-02 2.183996812489E-01 -2.023281302802E-01 -1.274671245379E+02 2.797543986940E+03
 -1.002743665155E-02 -1.793505620129E-01 -7.741310428030E-01 2.277651588989E-01 -4.056063629785E-01 -1.653492947686E+00 3.522870991107E-01 1.942415428925E-01 -1.944498152166E+00 -8.177069936887E-02 -3.192053174396E-01 -4.977360139293E-01 6.659960656610E-01 2.379617928148E-01 -1.019161198418E+00 1.242758726605E-01 7.538650207027E-02 -2.316956165747E-01 -1.542442998235E-03 -2.553542096490E-01 -5.628148839978E-01 7.378564926161E-01 -2.785947768657E-01 3.942967132531E-01 6.754741744738E-02 3.555928655979E-02 1.753456770603E+00 -1.193739316058E-01 3.914898233522E-02 9.198683100573E-01 -1.269997258621E+02 6.834031592806E+01 -1.041816293293E+02 -4.277657585287E+01 4.009692238093E+01 -8.576341554221E+01 4.580822074280E-01 -6.183245876300E-01 3.884974377575E+00 1.994157614118E-01 -3.236260268702E-01 -7.746011521884E+00 2.834265618790E+02 -4.681412969610E+01 2.879899747544E+02
 -2.263379987032E-02 -1.088471529880E-01 2.490673729991E-02 -1.130074389788E-01 8.506607671745E-01 7.764872450164E-01 2.550507756189E-01 -1.310461746350E-01 3.684984137394E-01 4.582933351343E-01 -5.519082131065E-01 2.439809718132E-01 -1.109730797556E-01 -1.921873636703E-01 6.121080048928E-01 -1.920948951479E+01 3.470136552406E+01 -1.273935355511E+00 -2.922500182166E-01 1.167754743808E-01 -2.413070143292E-03 5.750873274879E-01 7.867637595917E-01 -4.221669610646E-02 2.382083026977E-01 1.350994383872E-01 -3.695867553592E-01 -2.834247220529E-01 -1.770870109559E-02 -2.421626707187E-01 -1.243416087887E+03 -4.296435752354E+02 -3.498759879161E+01 -3.142993064066E-01 -1.026377494627E-01 7.875769063030E-01 -1.162409553178E+03 4.247616692877E+02 -2.736592964019E+01 -4.652907870909E+02 -2.052838047430E+01 -1.537991111256E+01 -2.012495751815E+01 -3.569403309297E+01 -4.953946759780E-02 2.761028352966E+03
 5.480115058164E-04 -9.312855009113E-02 -1.727966102635E-01 8.521693745275E-01 -4.692594117364E-01 -5.375517638565E-01 1.657714788573E-01 -9.492201259202E-02 -4.210059458939E-01 2.029957980673E-01 9.237207975755E-02 5.060447025808E-01 -1.983617203757E-01 -1.562719085950E-01 1.118601070150E+00 -3.267266628817E+01 5.812249371582E+01 -1.807870952441E+00 -8.051052548778E-02 -2.327347732693E-01 -5.526722079396E-01 -1.676507488136E-01 -1.238538784936E-01 1.514362296199E-01 1.014528332996E-01 2.123254345963E-02 3.366973257436E-01 -7.911219514097E-02 -3.322420727218E-01 -1.062668108104E-01 -4.419229786166E+02 -7.174372384283E+02 7.681120880608E+00 3.113156072549E-02 -1.280146052756E-01 -4.415833358111E-01 4.246286142732E+02 -7.151293552796E+02 1.817916736714E+01 -5.889080667179E+00 -1.468826339894E+03 3.428437150964E+01 3.774251229839E+01 6.340029948317E+01 -5.804754931356E-01 1.679541291617E+01 2.780114365359E+03
 2.267149920362E-02 1.138782156862E-01 4.636606272218E+00 5.970583977634E-02 2.232415115572E-01 -7.773253220253E+00 -2.102410943191E-01 8.394257530062E-02 8.233749682387E-01 -3.771369962851E-01 9.037456993785E-02 1.096529838472E+00 -2.248574321176E-01 -7.747215213539E-02 2.918152319100E+00 3.651205260227E-01 -5.415004287834E-01 8.354522967455E+00 2.109551714990E-01 9.069654984783E-02 -3.780308861751E-01 -3.940390384181E-01 -1.975328900973E-01 8.993009772210E-02 -6.048533289786E-02 -8.412206303082E-02 -1.086466229721E+00 2.493134694466E-01 3.744869789604E-01 -7.080028118940E-01 -3.374293210031E+01 9.903116781050E+00 -8.549896743394E+01 6.571173457105E-01 1.857785503335E-01 -1.015825426129E+01 -2.972901114877E+01 1.949133043206E+01 -7.987734119767E+01 -1.510436106209E+01 3.083095647661E+01 -8.339175187184E+01 -4.955883941152E+00 -5.864419774201E+00 1.085973421601E+01 7.298152708453E+01 -5.542489041707E+01 1.940657040693E+02
 4.847245533059E-02 8.655032523787E-02 -3.449673469659E-02 1.174599251540E-01 -1.709727009375E-02 -4.340592610173E-01 -5.989313524196E-02 -6.371188696516E-02 -1.220015025734E-01 -1.011062997288E-01 8.521529593434E-02 -6.936813107465E-02 -9.688600170649E-02 -1.206167764388E-02 -1.970055718280E-01 -1.112995839195E-01 -4.329190703060E-02 3.782437852508E-03 5.761780195465E-02 -8.469825469954E-02 -1.590494079164E-02 -9.068673254105E-02 -6.060597303088E-02 3.384102705189E-02 -1.062841137993E-02 -8.881865614091E-04 1.366011898596E-01 7.513282516486E-03 -2.589428957094E-01 4.000087584771E-02 -3.488664035615E-02 1.869791519477E-02 6.375199048491E-01 -1.431333217990E+03 -5.056117793879E+02 -9.539509229348E+01 9.200447360771E-03 -1.661383895050E-01 -3.377318575853E-01 -1.333559066113E+03 4.606942309537E+02 -8.251783179534E+01 4.955523236367E+01 -8.952640099317E-01 3.276318057235E+00 4.078060724680E+01 -2.496041538283E-01 1.542940171141E+00 3.051985982432E+03
 -7.624417864508E-02 2.050025205352E-01 1.660711225820E-01 2.414002392591E-01 -5.922443975541E-02 3.139969268464E-01 -2.957880375804E-01 1.508847811384E-01 2.860711133768E-01 -4.472667016660E-01 1.964274008087E-01 -1.957090504828E-01 3.515641770286E-02 1.730343528784E-01 -3.766464301047E-01 -1.536184298639E-01 -8.106003314074E-02 1.512538512903E-01 2.489452889469E-01 2.628173796260E-02 2.733193510601E-01 -4.060760027741E-01 -1.118973982943E-01 -8.871382221473E-02 -2.282028638839E-01 -1.185622346834E-01 -2.990978680423E-01 2.893215620560E-01 2.009128339527E-01 8.019899723619E-04 -2.112852221287E-01 1.450906359254E-02 4.271311465401E-01 -5.058159148724E+02 -8.386828628207E+02 -2.360526697442E+01 -1.735126328870E-01 -1.519921564694E-01 2.259047329344E-01 4.478567664751E+02 -7.599394628306E+02 3.861496442292E+01 -8.722458150239E+01 1.863729760761E+00 -7.412981040659E+00 7.389243907711E+01 -6.124768489974E-01 4.382767887983E+00 3.861327577083E+01 2.550083515767E+03
 -4.241601308148E-02 9.301250853962E-02 7.305063654446E-01 -2.955884930806E-01 1.406844802561E-01 5.545190056582E+00 -2.036020458561E-01 -3.991319951190E-02 1.006556746687E+00 1.536059955424E-01 1.196169954675E-01 -1.127508013784E+00 -1.541591988587E-01 2.530736103221E-02 -2.629408170410E+00 -4.238163667838E-02 -1.305630835678E-01 6.688215417764E-01 -7.710312226887E-02 2.088050437684E-01 1.277305300221E+00 -2.512279850715E-01 2.870045741293E-01 -5.035117211895E-01 -9.186758790701E-02 1.272330327535E-02 -7.926509365826E-01 8.579075167391E-02 5.789397766273E-02 1.499473304889E-01 -4.731315508393E-01 7.290025584436E-02 -7.573891131249E+00 -9.435374936955E+01 -2.259159165531E+01 -7.609863063572E+01 -4.714969210179E-01 5.994640402132E-01 5.262891920154E+00 -8.408482551131E+01 4.105724604125E+01 -8.809734108951E+01 7.353563011993E+00 6.274939658953E-03 1.258060911034E+01 3.681156875698E-01 -4.861035961830E-01 9.913781568934E+00 1.972650189612E+02 -3.849738156253E+01 1.677627882969E+02
 1.984998369433E-02 -1.103050211471E-01 -8.965521509624E-02 -1.248320143755E+03 4.604284855434E+02 -2.308198277955E+01 2.901886557371E-01 -6.474000989437E-02 -2.596536399246E-02 6.430462981261E-01 -3.526804302477E-01 9.843870984126E-02 1.190066382067E-01 -1.581830020885E-01 1.991713381886E-01 4.116620474713E+01 -3.184492421417E-01 5.563634357507E-01 -4.732927297733E-01 -3.431358566884E-02 -1.472589273869E-01 -1.928124322770E+01 3.628278924799E+01 -6.606331607609E-01 3.208204036883E-01 1.210098434178E-01 1.057946181970E-01 -4.742609210028E-01 -4.799081466269E-02 -1.110195264141E-01 -1.962956870088E-01 3.890102619442E-02 -5.286274289092E-01 9.412630794026E-02 -3.001486916953E-01 -2.136397449236E-01 7.364930565583E-01 2.532531656764E-01 2.623196875692E-01 -1.123134986738E+03 -3.745949717184E+02 -4.087326705071E+01 7.175586917481E-01 -9.906338361207E-02 5.196082587431E-02 3.429443380205E+01 -7.106164252979E-01 1.479079239151E+00 -1.808880818767E+01 -3.262492270723E+01 -6.277117455899E-01 2.744966405334E+03
 3.098841658862E-01 4.867223928780E-02 -5.029529782921E-02 4.728017145822E+02 -7.619864993670E+02 5.148343863836E+00 -3.135859682847E-02 -7.280224855141E-01 -1.152969434941E-01 -2.538104272882E-02 3.244952751712E-01 -6.638051223824E-02 -1.132265049552E+00 -4.350046956487E-01 -2.866829578831E-01 6.650205626887E+01 -6.111761999690E-01 1.269820112967E+00 1.975027574165E-01 -4.243059901151E-01 3.845081124709E-02 -3.357108192701E+01 5.998671725436E+01 -8.986447195093E-01 2.821308807184E-01 1.579127026594E-01 1.249590758782E-01 -2.513240269447E-01 -1.927691513860E+00 1.188459291958E-01 -6.300629687942E-02 7.877032426727E-02 1.825537645111E-01 1.617954285897E-01 -1.863667101794E-01 8.457181228679E-02 1.645456175081E-01 -3.751891390649E-01 -1.713422946692E-01 -3.766816671881E+02 -6.550542262495E+02 -1.290651448419E+01 4.416959761831E-01 -2.123480657818E-01 3.231541677330E-01 -6.356282277188E+01 7.767051061847E-01 -3.246635782652E+00 3.259159354099E+01 5.922049601496E+01 3.459460792500E-01 -3.257357886767E+01 2.853721603826E+03
 -5.172342676760E-02 1.496682756424E-02 4.798029079178E+00 -2.304365877467E+01 4.563174028493E+00 -8.444524317799E+01 7.688515194851E-02 -5.573326184833E-02 -3.003737987993E-01 2.866506685379E-01 -4.300858616318E-02 3.660430121789E+00 1.122939546121E-01 6.157145745068E-02 -2.664949463206E+00 5.601414460969E-01 -8.892709575133E-02 8.943575596184E+00 -1.899029429888E-01 -5.503415200433E-02 5.408859943321E-01 -3.595827463739E-01 9.144103923812E-01 9.422087803739E+00 -3.564441113435E-02 4.616993855126E-02 6.117811073834E-01 -1.327743340874E-01 -2.388546157778E-01 4.704627884122E-01 -8.568766220174E-02 4.101021287845E-01 5.460858503356E+00 -2.507238797463E-01 -2.065216417618E-01 4.665302657620E+00 2.798741425474E-01 -2.175522287649E-01 -8.853771453731E+00 -4.047820564616E+01 -1.271171557280E+01 -8.248698399844E+01 2.290549514896E-01 -1.530751469537E-01 4.087319468323E-01 2.727965557384E+00 9.798144687086E-02 7.207059401330E+00 -2.291422052733E+00 -3.018031537939E+00 1.064414131614E+01 7.198143512631E+01 3.940855881775E+01 1.918886348124E+02