#BIOSYM hessian 1
@Type: Hessian Update
@Units
 distance: 	A
 energy: 	Kcal/Mol
#header
@natom 74

#label
C1      C2      C3      C4      C5      C6      C7      C8      C9      C10     C11     C12     C13     C14     C15     C16     C17     C18     C19     C20     C21     C22     C23     C24     C25     C26     C27     C28     C29     C30     C31     C32     C33     C34     C35     C36     C37     C38     C39     C40     C41     C42     C43     C44     C45     C46     C47     C48     H49     H50     H51     H52     H53     H54     H55     H56     H57     H58     H59     H60     H61     H62     H63     H64     O65     H66     O67     H68     C69     O70     O71     H72     O73     H74

#element
C  C  C  C  C  C  C  C  C  C  C  C  C  C  C  C  C  C  C  C  C  C  C  C  C  C  C  C  C  C  C  C  C  C  C  C  C  C  C  C  C  C  C  C  C  C  C  C  H  H  H  H  H  H  H  H  H  H  H  H  H  H  H  H  O  H  O  H  C  O  O  H  O  H 

#matrix
222
 2.776761039064E+03
 -2.301011494214E+01 2.804381474466E+03
 -2.474163096958E+00 5.585280479847E+00 1.913819716258E+02
 3.847716031603E+01 6.599256724656E+01 1.202699471945E-01 2.808106675363E+03
 -3.798632295892E-01 -7.099464369840E-01 3.298339582357E-02 -2.378714543744E+01 2.749714257577E+03
 1.240374267200E-01 -1.210996134506E-01 8.748778142506E+00 3.498486377619E+01 7.437854724769E+00 1.924427837660E+02
 -1.922836236726E+01 3.487001294612E+01 3.614897471610E-01 1.475186326976E-01 3.250461730102E+00 6.862039937740E-02 2.810019182726E+03
 -3.304326086278E+01 5.911990703886E+01 6.287792754191E-01 -8.560677837499E-02 1.152846637351E+00 1.578619773568E-01 1.914400439414E+01 2.741644835902E+03
 1.603544171360E-02 3.065411045299E-01 8.518836476235E+00 -4.261383798184E-01 1.441931481965E-01 1.132022590256E+00 -6.750208211532E+00 2.841526135523E+01 1.920541440584E+02
 3.601903090438E+01 -6.678132432454E+01 -8.362023054939E-01 -1.957008617479E+01 3.582475776116E+01 8.872517159329E-01 3.943790921772E+01 6.743738638771E+01 1.295229200674E+00 2.789581296600E+03
 -8.648186351340E-01 1.047571392375E+00 8.794765161040E-02 -3.241836415175E+01 5.396124560599E+01 8.256190821987E-01 4.818847289741E+00 -1.923361335713E-01 1.334558741543E-01 -5.978975982229E+00 2.806757067560E+03
 -7.565513458901E-02 2.506413963685E-01 8.542388130414E+00 -8.770672355740E-01 1.050193647586E+00 8.860884664917E+00 -1.029767588629E-01 -2.723614879251E-01 1.327780007967E+01 4.965099864466E+00 2.939137789685E+01 1.960849018582E+02
 1.984145437958E-01 3.197231958669E+00 -6.491913474289E-01 -1.586842773496E+00 1.941116256683E+01 -1.683529469449E+00 2.000642178447E+01 -8.559769434243E+01 -3.093258517823E+00 -1.024063104830E+01 8.165049232244E+01 -6.208856527094E-01 2.237725801570E+03
 1.165545442078E+00 5.844563936708E-01 -4.619050058905E-01 -3.398367952031E-01 2.132047554808E+00 -1.455304719289E+00 -1.597416327528E+00 4.596711261769E+00 -6.530453680123E-01 -2.619858605733E+01 7.387380204855E+01 3.714390226798E-01 -2.299745316219E+02 2.963210912128E+03
 -4.589513877221E-01 -5.572241368266E-02 2.883813145323E+00 7.884768501415E-02 -4.036971759320E-01 5.489085249902E-01 -6.926749458136E-01 1.462123477593E+00 -1.110679825518E+01 -3.488231278697E-01 -1.761898044626E+00 -4.252230900624E+00 2.240912920557E+00 3.661485608100E+01 2.881283457479E+02
 -1.219590029987E+03 4.488962861957E+02 8.545528559485E-01 -4.573404724717E+02 -1.451467747651E+01 -2.562074727359E+00 4.083017937701E-01 6.211767138350E-01 3.980623833328E-02 9.639602169231E-01 7.145588018065E-01 3.257103996521E-02 -9.555545409550E-01 -2.631685308538E+00 3.564388893628E-01 2.816893437304E+03
 4.419720301942E+02 -7.427143826678E+02 -1.185618953691E+00 -1.138403179643E+01 -1.405034450646E+03 -2.305908289429E+00 -1.798289843573E+00 -5.070392460191E-01 8.389244898410E-02 1.414065837776E-01 1.304670417191E+00 1.422182381169E-01 -8.900160645827E+00 -1.539032724432E-01 -2.555320862570E-01 6.379064076708E+00 2.755726261839E+03
 1.091494738793E+00 -1.244643783028E+00 -8.255202286200E+01 -2.753251366320E+00 -2.444615627172E+00 -7.939881167974E+01 1.045771077775E-01 1.262676344024E-02 4.959430389315E+00 1.364444775797E-01 -3.573044590614E-02 -8.668383450271E+00 2.590538011133E-01 -2.365719518320E-01 -5.347378365388E-01 2.502342545222E+00 2.238818256590E+00 1.906742951719E+02
 -1.197093051177E+03 -4.084229467966E+02 5.358592244472E-01 1.112481357692E-01 -1.909712040549E+00 -2.218549269097E-02 -1.238977491586E+03 4.444994830383E+02 7.526716072313E+00 -4.708456382266E+02 -1.331933869185E+01 2.650876060519E-01 1.384138240294E+01 2.506256767912E+00 4.920127652903E-01 -1.920967491627E+01 -3.160769135402E+01 -1.420314469019E-01 2.792790028096E+03
 -4.069423126754E+02 -6.902878385820E+02 -2.544580235059E+00 -9.019834193825E-01 1.568563203199E+00 2.423114896460E-01 4.499986691708E+02 -7.371051897203E+02 -7.928455002267E+00 -1.405220030137E+01 -1.453536332997E+03 -1.563600043152E+01 -2.866502257564E+01 -6.168264365904E+00 8.897019505143E-01 3.485932659022E+01 5.678390644706E+01 1.511061166858E-01 -2.435839772286E+01 2.762123148435E+03
 1.296906486100E-01 -2.509813113014E+00 -8.037088362663E+01 6.857543974137E-02 -6.046639931927E-02 -8.412837667867E+00 8.128300288068E+00 -8.118219002920E+00 -8.472625596326E+01 8.318656434152E-02 -1.551416424364E+01 -8.385803968063E+01 3.969882235797E-03 -1.942396053432E-01 -1.294736325111E+00 7.009674259267E-03 1.209010365369E-01 8.339057155666E+00 -8.715130553752E+00 2.584517141635E+01 1.923166984791E+02
 1.662279776388E+00 2.842438771324E-02 -8.505686159269E-02 -1.221991543707E+03 -4.210740422632E+02 -1.492158472217E+01 -2.798474553837E+00 7.881951101968E-02 -4.129209539785E-01 -1.201350952248E+03 4.494913823633E+02 1.267639526930E+00 -2.315661092303E+01 -7.306275771538E+00 -8.267058216866E-02 3.622239259713E+01 -2.029688127100E+00 4.163228293356E-01 4.167925101847E+01 -2.240092297253E+00 1.241063559617E-01 2.780996531484E+03
 3.910205426342E-01 -6.190684417386E-01 -1.394380248561E-01 -4.272708634997E+02 -6.998921925057E+02 -9.233397498706E+00 -7.196800694172E+00 -1.624877013425E+00 -4.649687161810E-01 4.496865214550E+02 -7.356479566227E+02 -7.060079755949E+00 -5.309090060191E+01 -1.145661323380E+01 1.156086852725E+00 -6.690144013803E+01 -6.802941350553E-03 -8.084402243828E-01 7.102926502192E+01 -5.148324331914E+00 3.485080660370E-01 -7.677808359452E+00 2.793910137751E+03
 -1.023633610186E-01 1.484721964698E-01 -9.175947809292E+00 -1.447820916195E+01 -8.911305877391E+00 -8.310841443024E+01 -5.716871162616E-02 -3.992670037677E-01 4.203131313926E+00 6.544289945522E-01 -7.318156588126E+00 -8.227399930770E+01 4.752833805855E+00 2.656205070818E+00 5.962902388507E+00 6.040359023036E-01 -1.104512781562E-01 8.544139692020E+00 7.249875242955E-01 1.179766847849E-01 8.298406082015E+00 1.498996296719E+01 3.480505009644E+01 2.004679305337E+02
 -2.254939375886E-01 -1.082923608617E+00 3.106738907056E-01 6.412850564481E-01 -7.180853978974E+00 3.685547653021E-01 -1.238714253565E+03 -4.375131930885E+02 -1.218345451080E+00 -1.043028086857E+00 -1.488047732388E+01 6.199796242498E-01 -4.542107426612E+02 -2.305240535742E+01 -2.686597766975E+00 -3.355833621778E-01 3.638239928992E+00 -4.082274381811E-02 -2.637747582028E+01 -2.753739109310E+01 -8.657369267878E-01 7.532059222191E+00 1.896514731586E+01 -6.442604917571E-01 2.577576166852E+03
 -2.493244917753E-01 -8.422262022738E-01 2.471997467880E-01 1.032762389473E+00 -5.904312759715E+00 2.160729354449E-01 -4.475896798402E+02 -7.639389142618E+02 -6.187807456147E+00 -8.178909504851E-01 -1.101391863232E+01 7.431500172193E-01 4.756548259971E+01 -1.799759691467E+03 -2.723545206657E+01 -6.870055855777E-01 2.906452004965E+00 8.778776300306E-03 3.245563763116E+01 6.898318817002E+01 1.068276585535E-01 5.649637509411E+00 1.507661325532E+01 -3.513853105754E-02 1.684873751955E+02 3.002715743994E+03
 -3.750971506737E-02 -1.632802902141E-02 3.993551025025E+00 5.564293870618E-01 3.929328704916E-02 -1.961284912343E+00 -2.781981589312E+00 -8.032916008469E+00 -7.449252371308E+01 -1.206163956353E+00 2.776866525233E-01 -8.620141497395E+00 2.832517655601E+00 -2.111294426213E+01 -9.631179589621E+01 -1.746232399249E-02 -1.201463583177E-01 -1.208911921158E-01 2.383575383502E-01 5.520709569151E-01 8.356331451637E+00 7.395880019591E-01 4.721389459743E-01 1.413369154598E+00 -2.411928112474E+00 3.721031583180E+01 1.599079574212E+02
 -4.785125737172E-01 -1.974674724729E+00 2.107874002121E-01 1.477287518538E+00 -1.307817340763E+01 -1.441127277758E+00 2.116005947060E+01 7.151135074526E+00 1.898053062373E-01 -1.236612705047E+03 -4.583217117020E+02 -5.804994699719E+00 -1.119077858666E+03 5.006362427133E+02 6.032647726650E+00 -8.128877857589E-01 6.211719384411E+00 -3.004254121613E-01 3.142177327098E+01 1.469745480421E+01 -9.267254498119E-01 -7.617994048299E+00 -2.808469582541E+00 1.135413546694E+00 8.368089551853E-01 -4.503570262729E+01 3.688451671994E-01 2.774815575133E+03
 7.153240621158E-02 1.450115152199E+00 -1.715546855530E-01 -1.367754220779E-01 1.111543980639E+01 1.553154759768E-01 -1.917701773539E+01 -2.924945647408E+00 -1.121023806159E-01 -4.280938137947E+02 -7.064614487610E+02 -8.307458762567E+00 3.285914677103E+02 -7.906924848053E+02 -7.059491944863E+00 -1.651409795656E-01 -5.522459479907E+00 3.614698118760E-01 -6.082114783054E+01 -1.338451261297E+01 -9.170639016592E-03 2.476241796921E+01 3.059806353345E+01 1.565609466710E+00 1.310419134670E+02 3.387121074923E+01 -4.563096720914E-01 4.553820167911E+01 2.804412189677E+03
 2.996948356317E-02 -1.415075607962E-02 3.590801966156E+00 2.623899549035E-01 2.319130606068E-01 2.714236555260E+00 -1.594627147165E-01 -5.090815078501E-01 -6.243606213584E+00 -6.626032998094E+00 -7.591274859969E+00 -8.236341482984E+01 6.101481053184E+00 -7.396850772486E+00 -1.057742892358E+02 5.321352587897E-02 -1.172360843006E-01 -5.556306475997E-02 -8.327284532849E-01 -5.915421577159E-01 7.287967350812E+00 5.766936218680E-01 -1.131828629042E-01 1.039071568566E+01 1.974599011219E+00 6.518519418988E-01 1.626861812094E+01 2.141023360242E+00 3.628974647295E+01 2.023207978795E+02
 -9.775120980918E-03 -9.520453817236E-02 -1.226570318542E-01 -1.042941415924E-01 -6.400701664467E-01 -8.885272534121E-01 1.135614819959E+00 4.772761127951E-01 -1.077377945164E+00 4.038615558877E-01 -9.219872771771E-01 -5.939337836094E-01 4.318779850511E+00 -8.158778491324E-01 2.231863006809E-01 -2.589035754844E-02 3.686026816209E-01 -2.470896595671E-01 -3.153523539191E-01 3.560703586714E-01 7.397244843238E-02 3.886573230665E-01 9.028820409302E-01 2.950147060432E-01 -1.847544017546E+00 -1.439812053234E+00 1.126014933054E+00 -2.884215139966E+00 3.002492594903E+00 8.210640695359E-01 2.856448425711E+03
 -2.194678257818E-02 -9.324990268296E-02 2.177924311211E-02 9.607834487641E-02 -2.155702301133E-01 -7.306302560179E-02 1.109881752977E-01 -5.982892759201E-02 -8.542982215853E-02 -1.405058792183E-01 -1.915632156146E-01 -1.876125438798E-02 1.371698438684E+00 7.758328940254E-01 1.150110440649E-01 4.202854405106E-03 1.827528869626E-01 -2.714332580091E-02 -4.350696268676E-02 1.953103357754E-01 1.601365126174E-03 5.853699761896E-02 1.754373261966E-01 -1.075670041408E-01 -4.150197657393E-01 -3.175970789781E-01 5.874039680598E-03 -5.311923330191E-01 6.448859408561E-01 -2.900011537850E-02 -2.648652437924E+01 2.693413066914E+03
 4.522220948649E-02 2.981029459823E-02 1.012624429624E-01 -1.038784290604E-01 2.065237066211E-01 7.469717151191E-01 -4.235663271515E-01 2.157159207205E-03 3.327913854024E-01 2.154454167246E-01 6.320286681628E-01 6.014751387591E-02 -3.423944979901E+00 -8.507798011972E-01 -9.378449203483E-01 -1.630646386062E-01 4.834347256322E-02 4.637701492331E+00 1.441901986096E-01 -3.277365042109E-01 2.752375994131E-01 -3.373285441474E-01 -6.135931885414E-01 -1.113558130581E+00 1.323567013174E+00 8.917187097909E-01 -5.978133034405E-01 1.138452064498E+00 -1.596620284429E+00 -5.332768914130E-01 1.605939771552E+02 -1.707311278971E+02 2.146882284444E+02
 -1.351788329935E-02 -2.743518753933E-02 -4.729168501783E-02 1.137138396349E-01 -3.695819392941E-01 -1.952645232429E-01 8.445787171180E-01 2.466959913119E-01 -1.637865462188E-01 -1.888848657889E-02 -8.934690836375E-01 -8.597812415857E-02 4.441348580580E+00 2.513902751219E-01 -9.900089734349E-01 -5.795787914192E-02 1.020972354863E-01 -8.015855374920E-02 -3.043782098150E-01 4.772808263910E-01 -3.590582005711E-03 5.643505914306E-01 1.148019827252E+00 -1.044229509824E-01 -2.012175250117E+00 -1.673794236252E+00 3.775080897139E-01 -3.447475827906E+00 2.650987816051E+00 4.447663796149E-01 4.740194529046E+01 8.023667043901E+01 2.069776564039E+00 2.711027867367E+03
 -1.128729940435E-02 -6.089891237185E-02 3.219764849126E-02 -2.095257957754E-02 -2.670092658875E-01 1.845518935918E-01 4.901276814869E-01 8.957465229575E-02 2.383868677631E-01 -7.627397181918E-02 -6.415242717453E-01 1.306605172918E-01 3.556602532454E+00 7.245460589159E-01 -2.078862703717E-01 1.596600120843E-02 1.646062049692E-01 2.544156771660E-02 -2.067477604809E-01 4.319850151479E-01 -2.429860236556E-02 3.064351345673E-01 8.058328550080E-01 -9.312233675104E-02 -1.279008624830E+00 -1.035279569663E+00 -1.961073940506E-01 -2.270010049418E+00 1.968938352472E+00 -7.844910326564E-02 -1.004886688569E+00 -1.441013484634E+00 2.284224053636E-01 2.527489246095E+02 2.940115803560E+03
 3.927410216315E-02 1.920900874872E-03 8.363558975204E-02 -2.255150828425E-02 -1.451404974536E-01 4.111795265355E-01 3.052301597279E-01 1.325625358971E-01 2.292555820707E-01 1.888493270899E-01 -2.206258907083E-01 6.840061489910E-02 9.178450112198E-01 -4.250740091718E-01 7.407267967745E-01 -6.627751014571E-02 4.128349841555E-02 5.289316299851E-02 -1.305931190415E-01 1.767116929750E-01 8.288490430334E-02 3.018461959044E-02 3.047152105757E-01 -1.969152670253E-01 -5.645198691423E-01 -4.259184278479E-01 -5.057090496999E-01 -1.303219417667E+00 9.147228261547E-01 -4.847729404832E-01 2.981100063991E+00 8.319635905592E+00 1.292089947588E+01 2.003187058288E+02 -3.613830724301E+01 1.647445965885E+02
 -2.041322344934E+01 -3.419491481253E+01 -1.544673046737E-04 3.885696902845E+01 -1.032050655180E+00 -6.202102826915E-01 8.308727101164E-01 1.825233864643E-01 -4.295550696081E-01 1.401265070934E-01 -8.026364343740E-01 -2.050978026845E-01 3.822034959804E+00 5.229198352466E-01 6.061136608829E-04 -1.258835991153E+03 -4.367430351110E+02 -1.323409781814E+00 -2.401564210114E-01 3.473429780037E-01 2.867834189487E-02 1.475296803223E-01 1.059801335358E+00 1.521329919975E-01 -1.391876858323E+00 -9.581511890703E-01 5.639092868353E-01 -2.260610168862E+00 2.503175105183E+00 4.293420104315E-01 -1.932121461639E+01 3.463823087373E+01 -8.645711829605E-01 -8.056530740467E-02 -5.254545310660E-02 -1.655869851908E-01 2.777382051988E+03
 3.630152919853E+01 6.041211474202E+01 7.432130339871E-02 -6.731035857191E+01 3.411414384942E-01 6.681414682925E-01 4.869624670953E-01 7.762450710590E-02 6.869492917254E-01 -1.501968187379E-01 -6.300502354063E-01 3.517507803455E-01 4.238630768076E+00 1.135884380098E+00 -2.618275368534E-01 -4.426624717404E+02 -7.237380262204E+02 2.880618506489E+00 -3.158920020106E-01 5.732300484597E-01 -5.173082442978E-02 3.998060646054E-01 5.468550184455E-01 -3.736462911854E-01 -1.243269711169E+00 -1.065458542245E+00 -7.067882115151E-01 -2.327906261186E+00 2.269703035362E+00 -4.644741829653E-01 -3.260323482591E+01 5.795176612146E+01 -9.146796950597E-01 -2.550478297486E-01 1.626576071160E-02 2.210832023976E-01 3.082074765730E+01 2.785641422644E+03
 1.452456286647E-01 1.360775720727E-01 9.907482636326E+00 -3.286720087320E-01 4.853557622538E-02 1.010987890542E+01 7.154821374976E-02 1.397064457494E-01 9.758091791190E-01 3.632574281328E-01 1.098663279100E-01 4.370388988776E-01 -1.008515978914E+00 -8.443773835915E-01 -1.125144084775E+00 -2.160321028906E+00 2.136076742958E+00 -8.283603717393E+01 -1.034252055320E-01 4.302362129217E-02 4.681589993250E+00 -2.481697116679E-01 1.654333336053E-02 3.661131753562E+00 2.521697799196E-01 1.646982626976E-01 -9.167182035328E-01 -8.006983906874E-01 1.346954226032E-01 -6.996284744270E-01 -9.880128566423E-01 5.141122610077E-01 8.216950020865E+00 -1.563507407176E-01 1.053789164934E-01 2.328901004941E-01 2.804075690719E+01 -2.777006282895E+01 1.913816980109E+02
 -2.397299795351E-02 3.605740636269E-02 6.924150852183E-02 -1.898686328862E+01 -3.088339143488E+01 -8.796804871401E-01 7.082809507829E-02 -2.829006563001E-01 3.292873260095E-01 -7.188836342919E-01 -6.477857555046E-01 2.121499488565E-01 4.203680677192E+00 2.477599845996E+00 -7.454031714817E-02 2.283124651158E-01 -9.579287662217E-02 2.437760904524E-01 -1.649695641320E-01 5.136002733283E-01 -5.331673441517E-02 4.801574996095E-01 1.097748347411E+00 -2.213687869033E-01 -1.134839730043E+00 -8.286927784057E-01 -4.333884529430E-01 -1.944217294566E+00 1.555500122671E+00 -2.866522163105E-01 3.851223819373E+01 -6.906833866974E+01 2.212062269637E+00 -2.338947537720E+01 4.056912166539E+01 -2.076922726977E+00 3.869929424840E+01 6.505452263381E+01 -5.083568529587E-01 2.801613099304E+03
 -1.092285809344E-01 -2.139279559705E-02 -2.636613911731E-02 3.426935371672E+01 5.614001710773E+01 1.728121691235E+00 4.001993078890E-01 -5.228326760894E-02 1.402375325650E-01 -2.118969391270E-01 -6.162202284909E-01 1.159418899225E-01 2.511269566766E+00 9.265123262015E-01 -1.268655764036E+00 -1.077870507064E-01 -8.473413831366E-02 9.758668895486E-03 -2.148505178340E-01 3.039944260658E-01 -2.165032571813E-02 3.703487396132E-01 8.757457381124E-01 -3.779920875549E-01 -9.519621330638E-01 -5.973320220955E-01 1.663377753354E-01 -1.567282347105E+00 1.549049017688E+00 2.024662174755E-01 -2.773972281180E-01 5.429266456466E-01 4.822679617674E-01 -4.245016936105E+01 7.379035172528E+01 -2.834314903858E+00 -5.124238963509E-01 -6.242231008805E-01 1.046704128921E-01 -7.100521179153E+01 2.736577396687E+03
 -2.191179605702E-01 4.882113255608E-02 -2.423333389060E-01 6.976428854440E-02 1.997314171480E-01 5.929690091855E+00 7.181995162460E-02 -3.139680818262E-02 -1.506786130512E+00 -4.198643607033E-01 -4.132377544145E-01 -6.473193447041E-01 3.196166257145E+00 1.484938099741E+00 2.668006878718E+00 4.123755664521E-01 -1.048154228592E-01 -8.859038865876E+00 -4.787078480186E-02 -3.155460079614E-02 -2.865446297189E-01 1.495342992525E-01 2.181644218543E-01 6.097791011327E+00 -7.115724762377E-01 -5.021807098064E-01 1.470021924852E+00 7.375056743999E-01 6.611306934564E-01 1.074840441740E+00 1.574194129332E+00 -1.878511974543E+00 1.008309076952E+01 -2.297717920762E+00 2.489574697121E+00 1.226285421589E+01 8.647689244857E-01 4.898877510252E-01 7.262501829229E+00 1.294670931892E+02 -5.082792724329E+01 1.943821917317E+02
 -2.408607588250E-02 7.665184630706E-02 2.405540457560E-01 -5.809019601686E-02 8.285477413967E-01 1.415934145879E+00 -1.776179736315E+00 -7.088448946070E-01 1.703451507244E+00 -5.436888281064E-01 1.466359107134E+00 9.609991417249E-01 -6.958097905840E+00 1.163358789545E+00 -8.236855560279E-01 8.129130113511E-02 -3.488460615162E-01 3.307694743312E-01 5.619354692816E-01 -6.058650956841E-01 -1.021440989901E-01 -7.167795514950E-01 -1.415159466985E+00 -6.502459245374E-01 2.888270378923E+00 2.164655939347E+00 -1.762018972405E+00 4.386601433623E+00 -4.767818169240E+00 -1.301217804128E+00 -1.300627993133E+03 4.575174338220E+02 -1.207057201272E+02 -5.094345769605E+02 -1.752239173299E+01 -4.288968180407E+01 -1.271034484599E-01 6.248067769548E-01 6.461554445240E-01 1.729749359964E-01 7.573436368281E-02 -4.227404239121E-01 2.545445393376E+03
 7.301634472593E-02 7.750099347562E-03 -3.253146766356E-02 -8.818475235446E-02 -2.176844381339E-01 -2.909466680690E-02 7.914055434621E-01 4.366568199762E-01 -2.004533362098E-01 5.801282840483E-01 -4.502123085951E-01 -1.968865104642E-01 1.628444093232E+00 -1.716124337710E+00 1.343421363986E-01 -6.015905414087E-02 7.196913662949E-02 -7.550435888003E-02 -2.772286605616E-01 1.771035404309E-01 9.467067235454E-02 1.652979954183E-01 3.996855077603E-01 2.856727938918E-02 -8.292469029519E-01 -5.445613092561E-01 2.594381762468E-01 -1.875232722235E+00 1.854867758872E+00 1.390515820891E-01 4.911225375457E+02 -7.603758640330E+02 6.572064250110E+01 -4.848408108622E+01 -1.650913619575E+03 3.191737040545E+01 -2.436609151235E-01 -7.625465092868E-02 3.185141542993E-01 7.934105753796E-02 -6.293244946780E-02 -4.666820256477E-01 -1.316131131786E+02 2.797352054083E+03
 -1.858504215268E-01 4.066137399562E-02 -3.189127393613E-01 5.243506998321E-01 1.602522658911E-02 -2.162288652646E+00 -4.279031547235E-01 -3.767100994296E-01 -1.986716774450E+00 -9.806987479238E-01 -8.128605682627E-02 -8.735048767736E-01 1.135027890171E+00 2.512155562950E+00 8.235366190966E-01 3.893581363652E-02 -1.869340453389E-01 -2.867891643257E-01 2.327695350531E-01 -2.483029346098E-01 -1.785494538218E-01 4.506816708971E-01 6.096780033173E-02 1.204048713463E+00 -4.481275505057E-01 -5.450712099422E-01 1.952780441776E+00 1.632263067710E+00 -1.198691254965E+00 1.644972509801E+00 -1.240495455613E+02 6.442962517367E+01 -1.019872129739E+02 -4.273672067214E+01 3.028958450522E+01 -8.535366655329E+01 6.092578881884E-01 -8.717448186562E-01 3.490595852826E+00 -5.879618852924E-02 -1.192383113293E-01 -9.097759382806E+00 2.822015064270E+02 -3.032951524459E+01 2.863863951895E+02
 2.346392916055E-02 -3.177900155165E-02 3.914891802401E-03 -2.954307812737E-01 -1.720446516101E-01 6.578374684653E-01 -7.057009592904E-01 -2.336298780337E-01 4.630784611920E-01 -7.826871028472E-02 8.684799528385E-01 2.352810070586E-01 -3.421845841589E+00 1.941670164379E-01 -2.032281352051E-01 -1.955675851005E+01 3.488793923696E+01 -9.833900506340E-01 2.224611853594E-01 -2.219404534214E-01 1.633014425743E-02 -4.606779094566E-01 -1.053552128776E+00 -3.374369779474E-01 1.312225882084E+00 1.055348614637E+00 -5.094040788948E-01 1.896148417546E+00 -2.072142548128E+00 -4.410697873774E-01 -1.240954274185E+03 -4.308359408541E+02 -3.552090893992E+01 7.745495915424E-02 3.427116065226E-02 7.117304831297E-01 -1.163728582296E+03 4.221836064035E+02 -2.419542061998E+01 -4.636056795765E+02 -1.808603113195E+01 -1.429822850771E+01 -2.098741336220E+01 -3.536164225908E+01 -2.095570165944E-01 2.759614136074E+03
 1.326462604627E-01 2.061679191374E-03 -7.541239361364E-03 -7.523618020370E-01 1.384314091740E-01 -5.816269824327E-01 5.049100197666E-01 1.916353432604E-01 -4.754838134837E-01 6.534485583880E-03 -4.565748553394E-01 -2.470971404678E-01 2.314200174764E+00 -4.856681544354E-01 -9.662142233283E-02 -3.248730635908E+01 5.834042047958E+01 -1.548650497023E+00 -7.071912917763E-02 2.002426003412E-01 -5.644705891163E-02 4.435794264113E-01 4.812064484870E-01 4.522959345108E-01 -1.229924310830E+00 -1.040346624839E+00 6.322333415814E-01 -1.712146060104E+00 1.212098097056E+00 6.264923811392E-01 -4.433422065984E+02 -7.189384717116E+02 6.669162045082E+00 1.232832555375E-01 -1.309968427328E-01 -8.705026358159E-01 4.219809970982E+02 -7.114135423317E+02 1.510781461383E+01 -3.872993958335E+00 -1.457276171415E+03 2.855296591861E+01 3.755768362968E+01 6.377520493816E+01 -4.596931504957E-01 1.805240661863E+01 2.765886152586E+03
 3.479934328987E-02 -5.412535398397E-02 4.715545613867E+00 9.325567022363E-04 -7.384257139396E-02 -7.792688710701E+00 6.267148503924E-02 2.910131803173E-02 6.034608153095E-01 1.204438138784E-01 -8.496693450920E-02 2.475542677078E-01 2.174987347692E-01 -2.117569580707E-01 1.463781398189E+00 2.518273710608E-01 -5.368871638301E-01 8.777789623264E+00 -1.006165035923E-01 1.736555455813E-01 1.153121032379E-01 -5.624108083818E-02 2.162857653573E-01 -3.457893060697E-01 -1.881230074240E-01 -1.159531724262E-01 -1.142439721967E+00 -8.851696549526E-01 4.504936247028E-01 -1.050102585527E+00 -3.440812119961E+01 8.193364173621E+00 -8.433337974066E+01 6.481959365294E-01 8.771681755314E-02 -1.061858188149E+01 -2.659006776714E+01 1.696198860293E+01 -7.939247129186E+01 -1.421116724603E+01 2.583746082353E+01 -8.277128475106E+01 -4.149802868503E+00 -6.171620889853E+00 1.097962037796E+01 6.976501855016E+01 -4.588041002116E+01 1.923772948637E+02
 4.395802669824E-02 -6.984038779742E-03 -5.078431210206E-02 -2.088946651420E-02 -1.772538857000E-02 -5.247036044698E-01 1.546979247300E-03 1.796138225003E-01 -3.815983483477E-01 4.208892873771E-01 4.052318142721E-01 -2.215434542056E-01 -2.183568127429E+00 -1.285804886904E+00 5.131754735651E-01 -9.405224193322E-02 6.542829467238E-02 -6.260843354831E-02 1.147004075329E-01 -2.599229043744E-01 4.007972615813E-02 -3.493659580625E-01 -5.257115624835E-01 2.225439629241E-01 6.157621380696E-01 4.797929715102E-01 3.725604463102E-01 9.328240008158E-01 -8.279783142938E-01 2.026354358887E-01 1.277817133626E-01 4.729679581866E-02 4.642400736909E-01 -1.430120842758E+03 -5.060977379980E+02 -9.474141629335E+01 1.500357625683E-01 2.501179415855E-05 -4.488481359027E-01 -1.333462723465E+03 4.607560123962E+02 -7.582060466772E+01 4.972333550243E+01 -1.049857739866E+00 3.532385286821E+00 4.034949598177E+01 -2.215588572661E-01 1.574266177277E+00 3.050831201597E+03
 -1.388593778557E-02 5.539806617191E-02 1.047098442494E-01 -7.624313802346E-02 5.580268534044E-01 5.948201720535E-01 -1.189087026472E+00 -3.907071989720E-01 2.768924230601E-01 -1.653112611042E-01 1.148057808608E+00 1.330878027691E-01 -5.645338919699E+00 4.665741742815E-02 1.608069516155E+00 7.187805205811E-02 -2.226951945454E-01 1.056719834940E-01 4.109212484707E-01 -5.957474423554E-01 5.873931942579E-02 -6.154334993703E-01 -1.317234014469E+00 -6.217571488459E-02 2.445325369054E+00 1.949991816623E+00 -7.962132766443E-01 4.107044225470E+00 -3.586291898856E+00 -7.972153206548E-01 -6.899844898436E-02 -1.219512298772E-01 -3.968239197001E-01 -5.061094327095E+02 -8.398217348816E+02 -2.662830157885E+01 4.522911618957E-02 2.936089422975E-01 3.869143879453E-01 4.483990717868E+02 -7.588860850235E+02 3.420197525657E+01 -8.699119992127E+01 1.788902831681E+00 -7.466612837549E+00 7.328383012597E+01 -5.374618071703E-01 4.324175844518E+00 3.819831063616E+01 2.549902665718E+03
 4.618996760499E-02 2.962138037064E-02 4.541176047317E-02 -1.829418882143E-01 -3.837173498124E-02 5.566148431430E+00 -1.013343093909E-01 9.074566528750E-02 1.050234908171E+00 3.010836191338E-01 3.752010215512E-01 5.453254087229E-01 -2.125009224916E+00 -8.161154171546E-01 -3.743697047461E+00 -1.147677748063E-01 -3.025607695481E-02 7.716127069080E-02 5.697255460026E-02 -1.136314264243E-01 -1.549336963549E-02 -2.802590716106E-01 -2.759222923233E-01 -9.033688911970E-01 5.765246465532E-01 3.185156984148E-01 -2.511332763004E-01 -1.792253202785E-01 -6.277129911400E-01 7.865297552597E-02 6.650534085185E-01 -2.105876499907E-01 -1.055383416735E+01 -9.322164878640E+01 -2.585845866136E+01 -7.497157508972E+01 -2.446579791473E-01 3.665887000896E-01 5.102142059415E+00 -7.771063378364E+01 3.605367426368E+01 -8.419654176999E+01 5.460126565287E+00 -5.654955936510E-02 1.367624442405E+01 2.381113449679E-01 6.919362325206E-02 9.806843352606E+00 1.893776762592E+02 -2.516583142152E+01 1.644255357059E+02
 -1.791219711927E-02 -5.897482516201E-02 -1.200509171334E-01 -1.248818673098E+03 4.547037924143E+02 -1.891254545082E+01 -7.754675349380E-01 -3.223284524345E-01 -2.126723258287E-01 -1.130844782750E-01 7.743702251644E-01 -1.848255013034E-01 -5.450070817411E+00 -3.039011653823E-01 -1.988268772239E-02 3.997153315227E+01 -1.081325174173E+00 3.623165489432E-01 4.842030529271E-01 -4.775766373327E-01 1.176659234250E-01 -2.087440026649E+01 3.590065465227E+01 -4.302721064789E-01 1.726650706462E+00 1.442492734805E+00 1.334589140737E-01 3.191622218438E+00 -2.996463632259E+00 -8.840321638064E-03 4.307826185908E-01 7.160592661256E-02 -1.757443812140E-01 1.039654481304E-01 1.175326099892E-01 -3.109919515670E-01 -4.558377557977E-01 -1.273222588363E-02 9.867725984588E-02 -1.120243358248E+03 -3.766840092996E+02 -3.834517228940E+01 -3.862862361725E-01 -4.702891882134E-02 2.396828283786E-01 3.486140605874E+01 3.298857351258E-01 1.277258589705E+00 -1.795276331745E+01 -3.295509900744E+01 -6.353085825294E-01 2.741005426551E+03
 2.277073122860E-01 3.074558501333E-01 -7.126135458167E-02 4.660575502162E+02 -7.521982622105E+02 1.842126115286E+00 -1.671221368598E+00 1.699727062911E-01 -4.683340017007E-01 1.408800480845E+00 2.882269315085E+00 -3.053971849843E-01 -1.598257740160E+01 -5.432048168032E+00 7.159423268249E-01 6.633052592460E+01 -1.692644859767E+00 9.255668040677E-01 8.006671088137E-01 -1.895930366524E+00 3.982211678136E-02 -3.531770455853E+01 5.653715745164E+01 8.351391749347E-02 4.920374512051E+00 3.719557349099E+00 4.369690940724E-01 8.408417548872E+00 -8.127483881472E+00 8.641845051798E-02 3.564409323853E-01 3.059493968617E-01 -2.138003968524E-01 1.419328445780E-01 1.720469905618E-01 1.510133970698E-01 4.250613473865E-01 7.680329914831E-01 -3.184140764979E-01 -3.785023613166E+02 -6.552331159445E+02 -1.336450373237E+01 -4.428352353182E-01 -1.198588371060E-01 4.959707263361E-01 -6.251197433167E+01 6.238523794234E-02 -2.925834939008E+00 3.263547672195E+01 5.896319897060E+01 2.325888080880E-01 -3.037840163069E+01 2.811975708630E+03
 5.767982952065E-02 -1.086460375821E-01 4.609915938701E+00 -1.834228206547E+01 2.005324249093E+00 -8.399831497303E+01 -2.037757061173E-01 -6.674693969985E-02 -2.621451819899E-01 -4.409360420481E-02 2.084196787059E-01 4.515766023654E+00 -1.959051681923E+00 -5.434871920889E-01 -1.007814967441E-01 3.599495874573E-01 1.720083581220E-02 8.626706542950E+00 1.629749169452E-01 -1.347652667777E-01 5.440771962132E-02 -5.124469357469E-01 9.505470860078E-02 9.815828066443E+00 5.280839615334E-01 4.331222303733E-01 2.414132065762E-01 1.044435096007E+00 -9.762181395432E-01 1.506420239928E-01 -1.488577325910E-01 8.478599471821E-03 4.155707562118E+00 -9.883854196477E-02 -1.133640403095E-01 5.232331030359E+00 2.938873768858E-01 1.571843917496E-04 -8.829214931082E+00 -3.841488773275E+01 -1.307311225145E+01 -8.131639358254E+01 -2.228154398539E-01 2.081944754644E-01 3.427598911806E-01 2.663069807330E+00 -3.110545647761E-03 7.728640302552E+00 -2.397111047160E+00 -2.995993901020E+00 1.021633034641E+01 6.423613237858E+01 4.533380393967E+01 1.899842030197E+02