#BIOSYM hessian 1
@Type: Hessian Update
@Units
 distance: 	A
 energy: 	Kcal/Mol
#header
@natom 70

#label
C1      C2      C3      C4      C5      C6      C7      C8      C9      C10     C11     C12     C13     C14     C15     C16     C17     C18     C19     C20     C21     C22     C23     H24     C25     C26     C27     C28     C29     C30     C31     C32     C33     C34     C35     C36     C37     C38     C39     C40     C41     C42     C43     C44     C45     C46     C47     C48     C49     H50     H51     H52     H53     H54     H55     H56     H57     H58     H59     H60     H61     H62     H63     H64     H65     H66     O67     H68     O69     H70

#element
C  C  C  C  C  C  C  C  C  C  C  C  C  C  C  C  C  C  C  C  C  C  C  H  C  C  C  C  C  C  C  C  C  C  C  C  C  C  C  C  C  C  C  C  C  C  C  C  C  H  H  H  H  H  H  H  H  H  H  H  H  H  H  H  H  H  O  H  O  H 

#matrix
210
 2.786741724705E+03
 -3.999961613635E+01 2.766837776105E+03
 1.049615918779E+01 -2.080049299329E-01 1.902186170314E+02
 4.018875549414E+01 6.449553303601E+01 7.063068436086E-01 2.817435800977E+03
 -3.575871192147E-01 -5.889812870795E-01 -3.954137440757E-01 -4.595514987657E+01 2.725685360762E+03
 -4.864536012721E-01 -2.581415630598E-01 8.491219052254E+00 5.827417246274E+01 2.715113912838E+01 1.918719068735E+02
 -1.754293368253E+01 3.357321309293E+01 1.093021996466E+00 -1.047088327535E+00 -9.170197414349E-03 -6.452099076528E-01 2.814038584371E+03
 -3.185020029457E+01 5.800888315725E+01 4.003060357837E-01 -4.435209083710E-01 -1.510764431322E-01 -9.605680180372E-02 2.608768534719E+01 2.733676987158E+03
 2.601964871116E-01 3.416031938693E-02 8.758053109182E+00 -7.526115084580E-02 4.091208687841E-01 4.171854054989E-01 5.236510301811E+00 3.217437893135E+01 1.866259615131E+02
 3.647721852813E+01 -6.624249426042E+01 -1.239851754051E+00 -1.918754471559E+01 3.523893156343E+01 1.266455181561E+00 4.023572893467E+01 6.896148297981E+01 7.834339245425E-01 2.796687992347E+03
 -5.104906490156E-01 6.752380329567E-01 8.848517130265E-01 -3.248663538852E+01 5.907143613518E+01 1.330251871064E+00 -1.531630891788E-01 -4.624313044180E-01 -8.199970859582E-03 8.827999014430E-01 2.802947384653E+03
 -2.146391308644E-01 1.982892258277E-01 8.229220105214E+00 -6.264264033639E-01 1.993293345214E+00 8.121317553046E+00 -4.300134445283E-01 1.206728547358E-01 9.391393750069E+00 1.298830039307E+01 4.704259208061E+01 1.949462854593E+02
 -1.493338366761E+00 7.767363987960E-01 1.180612009038E-01 1.200750178727E+00 -2.792369003447E-02 5.000175641838E-01 5.177798991057E+01 -8.309352326823E+01 -1.281699053790E+00 -2.174503079015E+01 3.792130591279E+01 8.578811886266E-01 2.617332012218E+03
 1.957064046741E+00 -1.097793313282E+00 -3.007675011721E-01 -1.574998998632E+00 4.757536977767E-02 -6.209731006429E-02 -1.697419300387E+00 1.931242637577E-02 -4.182845965790E-01 -3.537719666140E+01 6.204294002263E+01 1.555678458258E+00 -1.771971474480E+02 3.045339254153E+03
 -2.705043334090E-01 1.520187090411E-01 3.845886868088E-01 -2.758356348014E-01 -1.632030755638E-01 4.092255548294E-01 1.510649735603E-01 5.017666933717E-02 1.338561229832E+01 -1.133834137916E+00 9.306572692314E-01 1.058744750795E+01 3.192358269482E+00 5.432178619299E+01 1.519914562206E+02
 -1.246148961882E+03 4.592986878826E+02 -6.536399453602E+00 -4.502740046819E+02 -1.046674319887E+01 1.154117726460E-01 -2.062113203204E+00 -3.508266132323E-01 -6.417689258482E-01 7.359815708370E-01 1.506377595693E-01 4.067990624117E-01 2.121660744125E+00 -2.722007976336E+00 1.231816315615E-01 2.819417648710E+03
 4.531026932968E+02 -7.500357028883E+02 5.747613028846E+00 -9.831717108491E+00 -1.359145807612E+03 -9.210136035557E+00 -1.152357370924E-01 1.256863265239E+00 1.174318174899E-01 8.660048949226E-01 2.340887060997E-02 3.284183198119E-01 -7.245935664578E-02 2.599139357840E-01 -1.376016531361E-01 -1.236451468308E+01 2.709687424179E+03
 -3.222461538941E+00 1.392262611893E+00 -8.303869873875E+01 -5.707217635168E+00 -6.523075657010E+00 -7.764757368368E+01 7.735961112670E-01 -2.823631920666E-01 4.880001142488E+00 -6.178601400579E-01 -1.008761282058E+00 -9.090526546364E+00 -1.496544183386E-01 -5.234520000297E-01 2.739700709413E-01 -9.892578210926E+00 -4.652770290730E+00 1.895747814262E+02
 -1.187090214130E+03 -4.047788434586E+02 -5.312379758654E+00 5.985163136791E-01 -4.166489984998E-02 8.288225110214E-03 -1.243885461541E+03 4.448067313164E+02 3.086745139391E+00 -4.686769326214E+02 -7.126362817581E+00 7.806126937917E-02 -5.254971216956E-01 5.319507453297E-01 4.209203043854E-01 -1.829569536622E+01 -3.280465461532E+01 -9.842864221093E-01 2.787249282126E+03
 -4.057434975330E+02 -6.837723815379E+02 -5.605366258957E+00 -5.461326094505E-01 8.019905203921E-02 -5.053465171377E-01 4.556159897758E+02 -7.373363584517E+02 -7.630793900131E+00 -1.098084587637E+01 -1.459400355980E+03 -2.374651320110E+01 2.807338376271E-01 -2.949934545334E-01 -1.869628230599E-01 3.356433051594E+01 5.786205773276E+01 1.650737874808E+00 -3.345368354538E+01 2.759789000552E+03
 -6.940108275077E+00 -4.933154370876E+00 -7.939109185500E+01 3.286386874148E-01 7.135064086879E-01 -8.697182135429E+00 4.314879614809E+00 -9.176983316530E+00 -8.276138204571E+01 -1.611358118811E+00 -2.283032584686E+01 -8.239190624144E+01 -8.222502630384E-01 -1.048474967727E-01 -1.050007656750E+01 -4.821983971047E-01 -4.510933529999E-01 8.588199429261E+00 3.174026742142E+00 3.696752585076E+01 1.909663857209E+02
 -2.049019141685E+00 1.172030140850E+00 -1.021346537477E+00 -1.228538029451E+03 -4.196677240762E+02 -2.888508531881E+01 1.398532935434E+00 8.636578906801E-01 2.071241298584E-01 -1.211009164150E+03 4.380795226164E+02 1.006729115213E+00 -1.592515587184E+00 2.080315612687E+00 -3.037326309144E-01 3.911862558333E+01 -6.081963877617E-02 2.152713077380E+00 3.947062512015E+01 4.057443451224E-01 -3.655090840843E-01 2.800476094085E+03
 -3.369505425313E+00 1.608484931182E+00 -6.324425273501E-02 -4.242335246569E+02 -7.058692898794E+02 -1.882567176557E+01 2.223624875577E+00 6.879153454630E-01 -3.521617186272E-01 4.395745879268E+02 -7.341368754681E+02 -1.159826677834E+01 -2.407898379191E+00 3.050958544391E+00 2.613261186606E-01 -5.825503250285E+01 2.121420113735E+00 -2.185099999748E+00 6.653935138954E+01 7.595588358704E-01 -1.540368753585E-01 9.936571124148E-04 2.776034346040E+03
 3.303954396327E-01 7.832712124336E-01 -9.725707813995E+00 -2.922771846611E+01 -1.754342116862E+01 -8.315794437113E+01 2.969452457519E-01 -1.098658545143E-01 4.757532013953E+00 2.261041092030E-01 -1.204643599713E+01 -8.076745490032E+01 -7.425502030337E-01 6.631115013481E-01 5.068181428199E+00 1.338390340821E+00 -1.019787633507E+00 8.380660265930E+00 1.518602154447E+00 8.636247889408E-01 9.487661142067E+00 3.036604063353E+01 6.708999074310E+01 1.992193186955E+02
 -5.220801137654E-01 1.468325915525E-01 -1.037942819736E-01 4.385289216376E-01 -5.531982119999E-02 9.717962690050E-02 -1.250127384931E+03 -4.504788120008E+02 -8.979900916592E+00 -1.450054410682E-01 -1.237111615703E-01 -1.870467664758E-02 -5.657346917672E+02 -8.831311095632E+00 -1.831938702420E+00 1.093690759192E+00 5.304732093547E-01 -1.382327483656E-01 -2.193459367229E+01 -3.726959520407E+01 -4.119352836504E-01 -5.921016869197E-01 -1.053299853050E+00 -2.082873144276E-01 2.612785924665E+03
 -1.756859734135E+00 1.038970853534E+00 1.576713319279E-01 1.351594372611E+00 -7.045972738888E-03 -2.169586585264E-02 -4.654522211252E+02 -7.775341724038E+02 -1.097406213830E+01 -1.102502046895E-01 -1.423356671270E-01 -6.019210526567E-01 -1.888130284906E+01 -1.802388193397E+03 -3.289374655104E+01 2.373511941562E+00 -3.438729882389E-01 5.088078608353E-01 3.534262879122E+01 6.176544671563E+01 1.632975682181E+00 -1.875286717063E+00 -2.677305401749E+00 -6.614417502949E-01 1.948330999323E+02 3.022139287722E+03
 -2.034887189491E-01 -1.731084594953E-01 4.783965084349E+00 3.371948782770E-01 5.148689676066E-02 -8.491135853349E-02 -9.554758091509E+00 -1.191500176969E+01 -7.770856614143E+01 7.372529043642E-01 5.377489903305E-01 -1.083295463295E+01 -2.324519849660E+00 -3.161455427783E+01 -7.135331705775E+01 -1.889665302282E-01 7.732688409506E-02 -3.418110853131E-02 -1.386891323486E-01 1.192127235619E+00 9.846385284783E+00 -2.295606515067E-01 -4.034304869249E-01 -1.177191537080E+00 9.645626409689E+00 5.003770484171E+01 1.534616631215E+02
 1.673715052880E+00 -7.656051447973E-01 1.031925886553E-01 -1.475161944695E+00 1.174745587056E-01 -5.982478666654E-01 -9.083353964075E-01 -4.532418528828E-01 -8.895503197407E-02 -1.232871452471E+03 -4.351103817848E+02 -1.323814313935E+01 -1.275744031976E+03 4.699883782334E+02 5.976716632786E+00 -2.834762778646E+00 -5.907900367071E-01 4.844599164974E-01 3.970487008614E+01 -8.214602401142E-01 1.065969809400E+00 -1.829231433145E+01 -3.112050824078E+01 1.541744211292E-01 5.253433603210E+01 9.242231448829E-01 2.826973392743E-02 2.862708550327E+03
 -1.046489522292E+00 6.434530564288E-01 1.446482915340E-02 8.146939603213E-01 6.093804624970E-02 2.397689973677E-01 6.801012437682E-01 3.424234319977E-01 3.526303321960E-01 -4.319057537754E+02 -7.293443581199E+02 -1.426814839120E+01 4.601475045626E+02 -7.952381954204E+02 -1.257969887823E+01 1.335360890447E+00 -4.059017622074E-01 5.658464372825E-01 -6.874804771147E+01 6.980208412199E-01 -1.085060487080E+00 3.392473718364E+01 5.777322513070E+01 9.699237838754E-01 8.478557512550E+01 -1.541328628520E+00 -8.144441309164E-01 -4.287432855399E+01 2.873172747290E+03
 -2.470627506766E-01 3.802535426231E-01 3.946312858835E+00 2.979369519087E-01 -7.582061725449E-02 4.364610394391E+00 5.899522155170E-01 2.477899139051E-02 -1.067558511623E+01 -1.289724770254E+01 -1.409055692889E+01 -8.426437177015E+01 5.069272852266E+00 -1.299953688848E+01 -7.767683794718E+01 5.344336728281E-01 -4.524810289201E-01 1.249091041023E-01 -1.118512636410E+00 -1.897810404763E-01 1.011318348428E+01 4.524407386555E-02 6.099564989494E-01 1.105399974985E+01 1.634818678006E+00 -1.227720057093E-01 1.055700167478E+01 8.374705520920E+00 5.768746650799E+01 1.880014520005E+02
 1.307920839434E+01 -9.816435671120E+00 -1.498990022489E+00 -9.423453834274E+00 -1.357881959873E+00 -4.760900130231E+00 -7.712709992057E+00 -9.532147454148E+00 -1.468833738824E+00 -2.312065628310E+00 7.877109773273E-01 5.794585375323E-01 9.913622634562E+00 -1.315780926177E+01 -8.407189342972E-01 -1.252381893891E+01 1.187988325080E+01 -2.878457128524E-02 3.778874941196E+00 6.369112440665E-01 1.971525345574E+00 1.384187775979E+01 1.615210787374E+01 3.546642142240E+00 1.354262406925E+00 1.217068940554E+01 1.957605009800E+00 -8.805560200115E+00 7.445610960216E+00 1.036913780484E+00 2.451222899115E+03
 -1.031460122248E+01 5.494210319591E+00 6.310194455456E-01 7.752167552040E+00 -1.530028215405E-01 1.505964546128E+00 6.157011581814E+00 3.565190033420E+00 8.678435608014E-01 -6.358325681017E-01 -5.416942688131E-01 -1.045624988809E+00 -6.948937173739E+00 9.208146156386E+00 1.081987965039E+00 1.542627451665E+01 5.477984498311E-01 8.275161822968E-01 -3.142154882599E+00 2.043547013561E+00 -3.416244905573E-01 -1.134422772711E+01 -1.624853065439E+01 -2.930614761326E+00 -2.282938362240E+00 -8.211498786628E+00 -1.123119217776E+00 7.987737618842E+00 -4.681092307840E+00 -4.340030521535E-01 2.970422098062E+02 2.632667198979E+03
 -1.262506417977E+00 2.821463652904E+00 -4.276522855261E-01 3.697494327036E+00 6.242036329399E-02 -1.979025397246E+00 2.219706511542E+00 1.719646210848E+00 -2.113620580248E+00 3.531546980772E-01 -7.580736796190E-01 9.538435717202E-01 -2.086997746692E+00 2.500344625182E+00 -1.000271316032E+00 1.548028799268E+00 -2.471422622033E+00 5.271483049624E+00 -2.292252926660E-01 4.198286997143E-01 -2.462848626160E-02 -2.632769204659E+00 -2.497573291137E+00 -5.775537345903E-01 -7.187188221801E-01 -2.452521736602E+00 1.100630901120E+00 1.706034631944E+00 -6.800296451487E-01 1.381829134082E+00 -1.422663188043E+02 5.161053865824E+01 2.754365027214E+02
 -7.746524712244E+00 3.649548029377E+00 -4.289767372250E-01 7.710002261053E+00 -6.467826895616E-01 -9.883991980755E-01 5.247476120895E+00 1.144122831507E+00 -1.342733613882E+00 -1.593900403861E+00 -9.167891142517E-01 -2.632177000500E-01 -5.266961684624E+00 6.766955363156E+00 -1.556489279178E+00 1.440976713899E+01 4.072008526027E+00 8.332096103779E-01 -2.079799252071E+00 2.788185917208E+00 5.527018302600E-02 -8.524775676710E+00 -1.482204776949E+01 -3.703143664744E+00 -2.628075110350E+00 -5.747232739550E+00 9.725950467827E-01 6.888591075939E+00 -3.368551820468E+00 -1.325501766551E+00 4.604838692054E+01 -1.045916449889E+01 -2.159419318040E+01 2.009251703221E+03
 -1.518542156235E-01 1.430041815445E+00 7.515321667136E-01 1.361692226281E+00 1.193517153719E-01 -2.048807451239E-01 1.742208300423E-01 7.794856839071E-01 -5.874975657688E-04 1.266610433920E+00 -4.228903168046E-01 -1.313291765337E+00 -1.999948631784E-01 8.741673395110E-01 -5.637624277321E-01 -2.301936484716E+00 -4.654297274173E+00 -7.687254423363E-02 5.355871035483E-01 -1.448155626393E+00 4.540101268048E-01 6.840680353344E-01 1.568865276431E+00 -2.172442359497E+00 3.265897760700E-01 -5.643992437815E-01 6.225605269532E-01 -3.623450739545E-01 -8.620558400891E-01 -1.678961691156E+00 6.119912629726E+00 -6.062964400619E+00 1.221850005133E+00 6.117522108296E+01 1.726780885607E+03
 -1.803498216756E+01 1.010146061282E+01 8.943018255121E-01 1.574172541969E+01 -1.210799248779E+00 2.943790960856E+00 1.076036652107E+01 6.437015925635E+00 1.122075677281E+00 -1.122717442794E+00 -1.112463766785E+00 -1.830404307330E+00 -1.242712907011E+01 1.601178822043E+01 -4.709440280345E-01 2.701391302242E+01 3.262680204327E-01 6.935784229140E-01 -5.452029135855E+00 3.467569173450E+00 -9.829494253721E-01 -1.957210696087E+01 -2.965705060060E+01 -6.711919427392E+00 -4.165315085276E+00 -1.419559481961E+01 -8.114011563786E-01 1.445350027169E+01 -8.818611667643E+00 -3.732208164577E+00 1.055177686156E+02 -9.273827455537E+01 -1.619847579327E+01 7.522762780719E+01 -1.189167860870E+01 1.941489389547E+03
 -2.286233240077E+01 -3.440631894722E+01 7.857936524031E-01 3.937000719484E+01 -8.877925913503E-01 -3.011754340423E+00 1.763222887866E+00 -8.431591938855E-01 -2.078632858695E-01 -1.377881592894E+00 -3.161558780156E-01 2.504458456528E-02 -1.504383947129E+00 1.733609511398E+00 -3.365710105382E-01 -1.240145256346E+03 -4.279026870630E+02 1.597085086899E+01 -5.425573862255E-01 1.890951269220E+00 2.910644040556E-01 -2.591109094643E+00 -5.622914956712E+00 -6.527143406622E-01 -1.306747442512E+00 -1.406151608519E+00 2.528150704254E-01 2.592618705777E+00 -6.955087274332E-01 -3.737053591964E-02 -2.229229310880E+01 2.605360627080E+01 2.600527681474E+00 -1.391792100783E+01 2.428769124038E+00 -2.213293708510E+01 2.761458909116E+03
 3.657335793886E+01 6.226130959826E+01 -1.768753245702E+00 -6.536623132401E+01 8.131797071517E-01 1.397222799332E+00 -1.838562964428E-01 9.381111477490E-01 -7.808901747869E-02 7.339004058149E-01 1.097686194311E-01 -2.481819331045E-01 6.491794014580E-03 2.388016352399E-01 -2.483258402019E-02 -4.441652542159E+02 -7.221357380527E+02 9.277420290812E+00 -9.631722111652E-03 -8.134721502117E-01 -1.607932034554E-01 2.678358974158E-01 1.105400252285E+00 -6.928179220924E-01 4.134481166810E-01 -2.485934997483E-01 -2.723898305315E-01 -5.273240758643E-01 -3.414768215790E-01 -2.445985664326E-01 -3.002025357348E+01 6.557266601451E+01 1.536490511736E+00 2.819674438340E+00 -3.454648899103E+00 3.667204566848E+00 3.507064043748E+01 2.775049664845E+03
 2.873031846283E-02 -2.942373304957E-02 9.577018064177E+00 9.495030706444E-01 -2.420104665339E-01 8.635784884448E+00 3.122851912137E-01 -1.407113589768E-01 -1.286787341971E-01 2.822106626743E-01 -1.705736795771E-01 7.754259342305E-02 6.748275874510E-02 -1.759675251381E-01 -4.212380452233E-01 1.834357124185E+01 9.681691750045E+00 -8.244461045269E+01 -4.206313516606E-01 -1.278765945035E-01 4.407373696578E+00 -1.623523980655E-01 6.847721217365E-03 4.279414219849E+00 -2.758479339794E-01 1.445563915684E-01 1.683459014430E-01 2.064811165679E-01 1.421695640686E-01 -5.015300679343E-01 -2.540838743698E+00 -3.874670226484E+00 1.063569709505E+01 -1.106290668703E+00 6.568392134030E-01 5.099359575112E-01 -3.638253828594E+01 -2.925266760461E+01 1.899084561484E+02
 -8.803068997758E-01 1.544745689460E+00 6.670794402599E-01 -1.743125554050E+01 -2.932976975241E+01 3.914281517448E-01 6.548497844476E-01 1.917806250399E+00 6.516696307500E-01 1.331605413589E+00 -1.486510172295E-01 -2.198085785286E-01 -7.878794902998E-01 1.425740583550E+00 8.006928975939E-03 -1.494047881049E+00 -4.737522748158E+00 -4.310322393910E-01 -4.370212705773E-01 -1.333889719877E+00 -1.109411193488E+00 -2.466110972396E-01 4.688839261224E-01 -1.811162918598E+00 2.812410875462E-01 -1.344245358177E+00 -3.137768390350E-01 8.242767528117E-02 -1.282693280649E+00 -1.001911667119E+00 5.999601224692E+01 -7.312606653510E+01 1.207855596144E+01 -2.033334859868E+01 2.323261539979E+01 -1.400908276560E+01 3.692344899903E+01 5.358446836898E+01 -6.224039647662E+00 2.851644784771E+03
 4.482914273830E+00 -1.516670453547E+00 -1.134863969664E-01 2.997765884546E+01 5.422493083893E+01 1.759388411891E+00 -2.440084730937E+00 -7.952707867019E-01 -7.345113470378E-01 6.399423994866E-01 1.797569228395E-01 9.669041107748E-01 2.626457881471E+00 -3.460671660664E+00 -2.995899250486E-01 -7.475733376682E+00 -2.131054564474E+00 5.022742820436E-01 1.621146052482E+00 -1.097423586159E+00 4.968953479227E-01 4.791162797414E+00 7.697511600183E+00 2.372246454386E+00 1.123138036629E+00 2.991174604595E+00 3.436138404191E-01 -3.440897877205E+00 2.011826759011E+00 1.510258120980E+00 -2.262595178814E+01 1.727495686553E+01 9.513084997877E+00 -1.108568996546E+01 6.206876167476E+01 1.423267206367E+01 7.275622623654E+00 -2.133818817616E+00 -3.251764815315E-01 -1.788276306570E+02 2.534412919229E+03
 -5.386955868403E+00 2.657724511216E+00 -1.474037434790E+00 2.499367853782E+00 5.674594453502E+00 6.130573139430E+00 5.294007759736E-01 2.326509884923E+00 2.499801097810E-01 8.702155568239E-01 1.470196984345E+00 1.727450340872E+00 -2.103484580981E+00 4.260916329406E+00 -2.754870768240E-01 7.388980073678E+00 -2.983946158171E+00 -7.253506532890E+00 1.401046982763E-01 -1.200176695952E+00 1.708494192973E+00 -6.396872527473E+00 -5.716582510306E+00 8.136484372252E+00 4.981591271241E-01 -3.716517898557E+00 -1.680950690201E+00 1.624783399373E+00 -2.710912497121E+00 2.036874127117E+00 2.537040011157E+01 -1.138325841139E+01 6.275369415532E+00 -8.370977636664E+00 -7.950432432147E+00 -8.908787432252E+00 -4.774967252530E+00 -9.552017426756E+00 4.956745709938E+00 4.498429151477E+02 -3.161507214335E+02 3.166667176924E+02
 -2.308345550097E+00 -1.749938023634E+00 4.832530070805E-01 1.157329124082E+00 -5.364336355926E-01 -9.178215106777E-01 9.452938134518E-01 -2.724082855082E+00 -7.184161966687E-02 -2.541244903346E+00 -1.443521925609E-01 -2.896172491282E+00 -5.619747483663E-01 3.152645839641E-01 -1.086485985671E+00 8.012381478783E+00 9.511854661732E+00 -5.393929659334E-02 -1.164808571362E+00 2.694631055227E+00 6.640286097291E-01 -2.555156412176E+00 -8.110016287140E+00 -6.078202399439E+00 -1.383996089534E+00 1.994184006870E-01 1.759757882723E+00 2.367074193067E+00 -3.627872468767E-01 -4.476361685223E+00 -8.121738463091E+02 2.986395840880E+02 8.580318802814E+01 -1.935788383697E+02 -1.431716105461E+01 6.844304496928E-01 -1.305412604270E+01 4.989803737031E+00 -1.587079126848E+00 6.604997771833E+00 1.043127318227E+01 -5.045536586730E+00 1.819454073449E+03
 1.146979429874E+01 -8.079514786611E+00 1.312472417367E-01 -9.819768176809E+00 -6.994036196051E-01 -2.691793819230E+00 -6.204114581558E+00 -6.530471414277E+00 -1.181521343014E+00 -1.728180830345E+00 9.765881975827E-01 -3.371608353088E-02 8.383749674029E+00 -1.120747658307E+01 1.313416340588E+00 -1.228701579675E+01 8.846815455295E+00 1.163510173896E+00 2.512528087282E+00 3.789031979089E-01 5.619963444357E-01 1.100171653052E+01 1.475817011596E+01 1.814292250509E+00 1.293068438965E+00 9.771143122001E+00 1.843071519108E+00 -8.191493615174E+00 6.940481285247E+00 2.535421884006E+00 2.299660403661E+02 -4.304378041687E+02 -1.282401944712E+01 2.355416790811E+01 -7.038659763090E+02 3.905902965599E+02 4.613526272062E+00 7.045535662920E+00 -4.032604763227E+00 2.640406564434E+01 -2.091367811932E+01 1.522945623601E+01 1.442698537416E+00 1.818573709547E+03
 1.022875781705E+01 -4.223162188276E+00 -1.034477870876E+00 -1.020085937327E+01 8.685681518152E-01 1.980219252174E+00 -6.903315062972E+00 -4.269039735332E-01 1.424856957659E+00 3.018063530998E+00 1.285399838266E+00 2.933016795120E+00 6.815325006548E+00 -8.387811668724E+00 1.304848672208E+00 -2.070402784700E+01 -7.899742939777E+00 -1.362562453669E+00 2.655779004466E+00 -4.599132907079E+00 -9.282901342992E-01 1.163762272032E+01 2.050323070264E+01 8.064585485814E+00 3.790757575303E+00 7.196926192194E+00 -2.587108559911E+00 -9.211400277910E+00 3.856139099865E+00 3.454685303758E+00 6.205393249976E+01 -1.145406884512E+00 -1.518584808494E+02 4.151939909970E+01 3.160937236821E+02 -2.661236960005E+02 2.326564725799E+01 -6.229410047430E+00 7.461335547508E+00 -7.104939268697E+00 -2.716773622571E+01 6.121820636558E+00 3.255781762844E+01 4.459444437620E+01 1.618389534948E+03
 -1.835950959382E-01 1.360933803382E+00 -2.975973070175E-02 -6.959910348302E-01 2.850038185124E-01 1.487712516589E+00 -2.779145167257E-01 2.647441149071E+00 4.086415408157E-01 2.028091540246E+00 9.650396554191E-02 -2.948209639284E-01 -3.458101127054E-01 7.797732665134E-01 1.042086378609E-01 -2.361725375964E+01 2.620427479088E+01 -9.502478968457E-01 -3.165472981366E-01 -2.175314635739E+00 -5.626023691974E-01 1.287931140649E-01 2.474449856604E+00 -9.547689046037E-01 1.116019524335E+00 -8.279132548774E-01 -6.487760351574E-01 -9.662491064634E-01 -8.436565222107E-01 -5.775371563368E-01 -1.396853830451E+03 -5.422240419778E+02 4.360338355162E+01 8.573253528408E+00 -8.673201481662E+00 3.426786366371E-01 -1.148018772375E+03 4.229474170790E+02 2.380780208582E+01 -4.194816970842E+02 -3.399780038699E+01 -2.548290299308E+01 -1.237621625022E+00 -8.653109136421E+00 -1.936794229111E+01 2.864086069849E+03
 -1.832831785398E+00 -4.089829412712E-02 -4.022845696956E-01 1.584972835170E+00 -2.249655318332E-01 1.029037960335E+00 1.228783187261E+00 -1.650147616107E-01 -3.812190557883E-01 -8.176545683915E-01 -2.545270734557E-01 1.358267147909E-01 -1.164794462702E+00 1.238683978204E+00 -8.978651519321E-01 -2.819570602258E+01 6.132619762009E+01 7.099735077942E-01 -9.660255950733E-01 1.148691794212E+00 -6.810046949640E-02 -2.249927387825E+00 -4.722570587127E+00 -1.430807071422E+00 -6.961511721319E-01 -1.022046522941E+00 4.365860936612E-01 1.855729138390E+00 -6.915940849374E-01 -9.610624848447E-01 -5.050855162986E+02 -7.977598673389E+02 1.612768535833E+01 -7.629765850981E+00 2.725885530388E+00 -2.120400940102E+01 4.039993313887E+02 -7.017584691870E+02 9.253580728681E+00 3.051235267923E+00 -1.205448922496E+03 1.133668939746E+02 2.952382025431E+01 5.184585042354E+01 1.954558547918E+01 1.214987910359E+02 2.595494363540E+03
 2.434654056370E+00 3.242702632446E-01 6.091166699293E+00 5.633071749961E-01 -2.348594754688E+00 -7.897965903570E+00 -1.265541925299E-01 3.702359442995E-01 1.384419202922E-01 7.659966492534E-01 -6.800903494937E-01 -1.258200437886E+00 9.975798472248E-01 -1.072280173494E+00 6.738428335633E-01 -4.468688457302E+00 -1.792212087440E+00 6.373328623925E+00 -9.073765191485E-01 -9.432224528900E-02 -3.876511446909E-01 1.238796827812E+00 3.486110659383E+00 -1.605090018973E+00 1.587063720365E-02 5.277211419755E-01 9.282372667552E-01 -1.489742079096E+00 1.167768821427E+00 -7.965778951478E-01 5.808643289820E+01 3.589309115700E+01 -8.570986914601E+01 3.255076025358E+00 6.538773969834E+00 -7.049006615864E-01 1.606014480597E+01 1.115331390830E+01 -7.827242915930E+01 -2.881885199182E+01 9.533149931406E+01 -9.049892001564E+01 3.838896120943E+00 1.231088784343E+00 -5.610161010992E+00 -5.796917198727E+01 -1.548043052738E+02 2.077308974240E+02
 1.198056807336E+00 4.654321787421E-01 -7.512899251563E-01 -5.207388492032E-01 8.228348685383E-01 -1.051265431316E+00 -3.178815766226E-01 1.414602356478E+00 -7.132604433201E-01 7.727395548202E-01 -1.141928760666E-01 1.625203285028E+00 -1.523234664453E-01 -2.422629740209E-01 -7.192391947669E-01 -2.779797168823E+00 -3.322566210595E+00 -6.305224142991E-01 6.061932293067E-01 -5.757009445145E-01 -4.004246034507E-01 9.626073693685E-01 2.580743937735E+00 2.184725138632E+00 5.883314987810E-01 -4.209086034251E-02 -2.327086957764E-01 -7.749940079906E-01 1.237345535281E-01 1.244395854705E+00 1.155398941771E+01 3.939897194178E+00 -5.415841695860E+00 -9.578901154100E+02 -3.520276698194E+02 -7.577581897773E+01 6.567512296096E+00 -3.571749914901E+00 1.224504139014E+00 -1.524446319318E+03 5.217228465871E+02 -3.279520625087E+02 2.184434237013E+01 6.106870429429E-01 -8.470408554311E+00 3.367825208975E+01 2.540193752703E+00 1.064606582250E+01 2.771424636352E+03
 -1.586965330320E+00 2.175097586959E+00 3.970328602757E-01 1.084461793432E+00 4.680030899144E-01 1.701255247450E+00 8.657699087767E-01 2.530783162345E+00 4.052084161031E-01 1.230550445822E+00 -1.140482228531E-01 1.412255036354E-01 -1.522585896669E+00 2.234306260737E+00 3.983271351278E-01 -4.077071003649E-01 -4.972196767579E+00 -4.768495350711E-01 -3.296668258327E-01 -8.763629007827E-01 -9.916225963952E-02 -1.975655406702E+00 -2.810135125320E-01 8.408856502802E-01 2.763120690393E-01 -2.210613915964E+00 -5.769294877228E-01 6.101891096793E-01 -1.137326397456E+00 4.065565503749E-01 2.568304855178E+01 -8.444942262350E+00 5.819047292840E+00 -3.746775195224E+02 -4.901150690044E+02 -2.500757522798E+00 4.069319526803E+00 -3.209107262744E+00 1.217594733917E+00 5.353807264597E+02 -8.249890598256E+02 2.212882891615E+02 -2.537137940819E+01 1.132773425969E+01 -1.359873808850E+01 6.192849314019E+01 1.539549221735E-01 1.593660690350E+01 -1.677853333846E+02 2.207166620669E+03
 1.477025022857E+00 -8.487472995618E-01 -5.975611115711E-01 -9.333938051114E-02 -3.683364244945E-01 4.568618454861E+00 -1.467773314263E+00 -1.233243317226E+00 7.957660010111E-02 7.657800646257E-02 1.766341417968E-01 6.870007004413E-01 1.435258966402E+00 -1.571689818745E+00 -5.742757905766E-01 -1.893899469156E+00 1.119468171798E+00 -5.773018430583E-01 1.931790753010E-01 -5.324728101070E-03 1.115874025256E+00 7.001869434154E-01 2.105119389503E+00 2.903097707932E+00 3.436533981032E-01 1.439635159209E+00 -1.033409739517E-01 -1.379325223800E+00 1.052939670475E+00 -7.745272710094E-03 -1.248351314832E+01 7.574870265854E+00 -1.154928219875E+01 -6.638142277610E+01 1.734900553875E+01 -1.511405242052E+02 -1.758443834394E+00 2.734503753697E+00 6.181712263653E+00 -3.479146380512E+02 2.261830865641E+02 -1.821495940630E+02 1.836250211023E+01 -1.881017517684E+01 1.067768398570E+01 3.713700783674E+00 6.371804114369E-01 7.547896505169E+00 4.535181399663E+02 -5.066387341490E+02 4.315264844174E+02
 -1.599195739196E+00 7.642868651583E-01 6.380748845287E-01 -1.260879536942E+03 4.659616616383E+02 -3.083649618808E+01 9.828926724949E-01 2.641406625481E-01 -1.002759540824E-03 -2.212048647472E-01 -2.864315156217E-03 -6.001302130464E-01 -9.267787596618E-01 1.380504736142E+00 3.038333610061E-01 4.349180928158E+01 4.425082372271E-01 1.459730896019E+00 -2.795167300021E-01 4.187174347428E-01 1.513318231550E-01 -2.256850315694E+01 3.507386228925E+01 -1.931925704841E-01 -5.396593427199E-01 -1.202486231111E+00 -6.567765546099E-02 1.143402695150E+00 -5.763042448215E-01 -4.953297218101E-02 5.708258961982E+00 -5.931128396135E+00 -1.714405961448E+00 -7.566775126654E+00 8.376443245514E-01 -1.546463479355E+01 -2.859310989219E+00 7.271089772220E-01 -1.697478625729E+00 -1.049621686618E+03 -3.409102458352E+02 -8.237640144001E+01 -3.894104505897E+00 5.852539949413E+00 1.001346145691E+01 2.677530806362E+01 -1.867381009539E+00 4.945203744060E+00 -1.714592165967E+01 -3.319893697178E+01 1.688244580747E+00 2.694040836197E+03
 -5.221237539599E-01 4.118096659369E-01 -1.597601957625E-01 4.854465485984E+02 -7.716002509501E+02 -3.422349930964E+00 3.405854826835E-01 2.781938231535E-01 5.386364530816E-02 2.670889060958E-02 -5.222732737380E-03 -4.198118582383E-01 -3.057387803937E-01 5.143470903301E-01 4.359811029305E-01 6.648093776219E+01 -1.114916773207E+00 1.257892444557E+00 -1.535671893139E-01 -3.238522593425E-03 -3.694379042012E-01 -3.492296153517E+01 6.093218175025E+01 -1.606180483739E+00 -1.325519662865E-01 -5.182586903553E-01 5.728301534433E-03 2.997386039587E-01 -2.420358390366E-01 -1.148333934820E-01 1.850397723084E+00 -2.844181251612E+00 1.251133106802E+00 -1.983382503997E+00 -8.423397955501E-01 -3.583316011171E-01 -1.257965700110E+00 -1.438119788517E-01 1.180489521197E+00 -3.630717867680E+02 -6.193495668910E+02 -1.709751900269E+01 -1.285683000831E+00 5.528604834032E+00 5.129441779959E-02 -4.898136052640E+01 -2.205018908687E+00 -2.346998694701E+00 3.620297610197E+01 6.560378845863E+01 -3.042924288800E+00 -7.808055672481E+01 2.820290874375E+03
 1.205239414263E+00 -2.307650890986E+00 5.397220873939E+00 -2.935626264921E+01 -8.574582090578E+00 -8.460810142801E+01 -4.932674451226E-01 -8.235034108524E-01 2.273655294221E-01 -9.760033005844E-01 -6.605989653669E-01 3.427279846760E+00 6.201044107138E-01 -1.149593096117E+00 1.123230823974E-01 -2.418628419991E+00 3.513279080621E+00 8.570504329764E+00 -1.626207216158E-01 8.719552781134E-01 -5.337778223915E-01 1.193510772305E+00 2.230336080689E+00 7.229494054861E+00 5.042422011757E-02 1.093553430998E+00 5.850034822418E-01 -4.266538028038E-01 3.645304947822E-01 -1.635608196995E+00 -1.075995395060E+01 1.823724632631E+00 1.512265243152E+00 3.391941309211E+00 2.461963197234E+00 1.185272631254E+01 4.053957037123E+00 2.263021765705E+00 -7.735363003848E+00 -7.347899029816E+01 -6.472834107849E+00 -8.734998997220E+01 2.352081365619E+00 -2.804733604621E+00 -3.496969565566E+00 1.243018646773E+01 5.587700503305E-01 5.784978372826E+00 -1.657410225664E+01 -1.501216753302E+01 1.098384452118E+01 1.191203151035E+02 1.169196590531E+02 2.024369656809E+02