#BIOSYM hessian 1
@Type: Hessian Update
@Units
 distance: 	A
 energy: 	Kcal/Mol
#header
@natom 74

#label
C1      C2      C3      C4      C5      C6      C7      C8      C9      C10     C11     C12     C13     C14     C15     C16     C17     C18     C19     C20     C21     C22     C23     C24     C25     C26     C27     C28     C29     C30     C31     C32     C33     C34     C35     C36     C37     C38     C39     C40     C41     C42     C43     C44     C45     C46     C47     C48     H49     H50     H51     H52     H53     H54     H55     H56     H57     H58     H59     H60     H61     H62     H63     O64     H65     O66     H67     C68     O69     O70     H71     H72     O73     H74

#element
C  C  C  C  C  C  C  C  C  C  C  C  C  C  C  C  C  C  C  C  C  C  C  C  C  C  C  C  C  C  C  C  C  C  C  C  C  C  C  C  C  C  C  C  C  C  C  C  H  H  H  H  H  H  H  H  H  H  H  H  H  H  H  O  H  O  H  C  O  O  H  H  O  H 

#matrix
222
 2.801114641728E+03
 -2.105104903508E+01 2.824569539271E+03
 6.387137464252E+00 5.025872915416E-01 1.937747718576E+02
 3.850496729479E+01 6.916381968767E+01 -9.791895339795E-01 2.795804070778E+03
 -4.773187996184E-01 -1.391510673543E+00 -3.021204446392E-02 -2.897872742372E+01 2.742930282023E+03
 3.874929813169E-02 4.850571105771E-01 8.446486251294E+00 5.539037450219E+01 2.340781136964E+00 1.919134624795E+02
 -1.948552664862E+01 3.632764755364E+01 2.221648099549E-01 -2.471460205428E+00 5.202061901073E-01 3.000385127673E-01 2.813166209716E+03
 -3.345699080559E+01 6.027805304474E+01 5.679455822023E-01 -1.143768914889E+00 1.687340042721E-01 -1.586329101795E-01 2.509204793838E+01 2.750021297362E+03
 -1.197344370573E+00 1.292571182026E+00 9.131391689673E+00 -1.259060248086E-01 5.339606614443E-02 8.975318689410E-01 3.531575992587E+00 3.566343452865E+01 1.887662894359E+02
 3.641254330896E+01 -6.429901346789E+01 -4.610460915827E-01 -2.292507312516E+01 3.607964015449E+01 1.507660399634E-01 3.869514613939E+01 6.864767849655E+01 5.716253841778E-01 2.808897134376E+03
 9.658035309451E-01 -2.603560206016E+00 -7.975291837653E-01 -2.865207082158E+01 5.703649029635E+01 5.428274771467E-01 1.664471516205E+00 3.328096721173E-01 -5.670677755230E-01 -1.889053184215E+00 2.824437048842E+03
 2.779846270713E-01 1.562435507938E-01 9.140652642310E+00 -1.080661478965E+00 1.290022304968E+00 8.389550331702E+00 4.500703967033E-01 1.183209850455E-01 9.903511674021E+00 1.935766334119E+01 3.323374909208E+01 1.963223594716E+02
 6.411311842819E-01 -1.473840332749E+00 3.744691615821E-01 3.054955432876E-01 1.457779930748E-02 2.436089249503E-01 5.051059357113E+01 -8.507036444602E+01 -9.314329785621E-01 -1.990347679830E+01 3.773709708532E+01 6.060547522925E-01 2.609728553375E+03
 -2.516623705195E-01 4.703089458291E-01 4.242600120367E-01 -3.904835979767E-01 7.335875576639E-02 -1.649587283028E-01 -5.846357612495E-01 7.804689174544E-01 -4.747009262505E-01 -3.562997351147E+01 6.311492589889E+01 4.047405767799E-01 -1.700244802675E+02 3.066978199709E+03
 -3.507003115719E-01 1.880542502869E-01 -4.865459705965E-01 -9.642052849571E-01 2.051541275393E-01 6.688060097776E-02 2.449008291480E-01 -2.510979329463E-01 1.193278101630E+01 -6.538233018527E-01 1.364972737192E+00 9.986451477514E+00 8.365331586367E+00 4.821704837977E+01 1.578749427444E+02
 -1.227848233427E+03 4.520552211358E+02 -2.311646440915E+00 -4.543604744500E+02 -1.506874168730E+01 -5.383281928530E+00 8.233670459707E-01 3.550762770443E-01 3.570844416424E-01 1.396611262921E+00 -1.592095457426E+00 2.014612255417E-01 -6.674233115881E-01 2.686773140924E-01 3.731906180253E-01 2.822170275503E+03
 4.463959502128E+02 -7.494077635252E+02 1.400967229710E+00 -1.197162906018E+01 -1.399902761540E+03 1.099255618183E+00 -3.147850208804E-01 -1.147666425432E-01 -4.056361754843E-03 -6.914966564903E-01 6.149170051486E-01 -5.496594769823E-01 4.259186764648E-01 -7.999141189355E-02 -9.231109735998E-02 6.496425766518E-01 2.757290863202E+03
 -4.644889715117E+00 2.124305005291E+00 -8.337637011765E+01 -3.560774534846E+00 2.755334546583E-01 -7.950158635384E+01 6.299742434796E-02 -1.355929123861E-02 4.969090796794E+00 1.247796593675E-01 1.071265058370E+00 -8.652013109438E+00 7.449783110473E-02 1.405982601328E-01 -5.346400815373E-01 9.033655569347E+00 -5.426904856329E+00 1.919593285555E+02
 -1.209508672314E+03 -4.157737285329E+02 -4.019498069546E+00 1.439219381017E+00 -1.486521916234E-01 2.687436773104E-02 -1.238360122491E+03 4.434742908060E+02 6.229912094555E+00 -4.721316272115E+02 -6.427044981351E+00 -2.116762283653E+00 -2.399356214975E-01 2.126451465746E-01 -1.502812357819E-01 -2.018725047994E+01 -3.259555638553E+01 4.020518207553E-01 2.806752262511E+03
 -4.147750440796E+02 -6.954091613578E+02 -3.224733387069E+00 -3.152595791861E+00 7.859932141446E-01 2.105527986518E-01 4.499235982848E+02 -7.384747835819E+02 -7.619196525981E+00 -1.254451776495E+01 -1.465854786797E+03 -1.790515827580E+01 6.116106798299E-01 -4.680646434400E-01 -3.725876018600E-01 3.688281778221E+01 5.857194871757E+01 -3.408292258372E-01 -2.140822727747E+01 2.781386757394E+03
 -1.840684349283E+00 -4.760549753361E+00 -8.177995022714E+01 -1.221502453050E-01 3.288499013259E-01 -8.582672115883E+00 4.286189435828E+00 -6.965256197811E+00 -8.362708314218E+01 -9.986124261667E-01 -1.878034278320E+01 -8.393332322333E+01 5.500444947860E-01 1.007881807680E+00 -8.689868643817E+00 6.353594072817E-02 -4.118841728647E-02 8.255225387857E+00 -1.817463426904E+00 2.953025604931E+01 1.943569564908E+02
 8.744902641995E-01 -3.684805665159E+00 8.583354312455E-01 -1.202171516439E+03 -4.216680588220E+02 -2.354940198863E+01 2.566425255778E+00 1.058611522171E+00 -1.977975018242E-01 -1.190858188231E+03 4.411359634344E+02 -4.064899946686E+00 -9.325912050634E-01 4.246187841215E-01 3.839551101684E-01 3.444050977858E+01 6.010170719274E-01 -4.011117044479E-01 3.943067409134E+01 2.911394635941E+00 6.255613371807E-01 2.743252993903E+03
 -2.140640187732E-01 7.005473513006E-01 6.925626343221E-01 -4.241388262292E+02 -6.997434760253E+02 -1.213345348001E+01 3.306878333064E-01 3.207870989576E-01 1.435367038391E-01 4.458513577308E+02 -7.448896453977E+02 -5.157169017858E+00 1.622270823759E+00 -1.520917692183E-01 -2.922071441479E-02 -6.438778486299E+01 4.118149130648E-01 -1.481995449957E+00 6.696951301511E+01 -6.446849718408E-01 3.047188783356E-01 -4.334154546562E+00 2.759575042494E+03
 -6.323099163365E-01 -3.466504731036E-02 -9.172917147061E+00 -2.247559124372E+01 -1.252363322954E+01 -8.091431792987E+01 -7.161612001004E-02 1.286729905788E-01 4.371539001468E+00 -4.689814813172E+00 -4.794416757123E+00 -8.269332632796E+01 2.358818134891E-02 -2.405845744782E-02 6.650843035721E+00 6.142543330187E-01 1.770758214812E-01 8.401015302055E+00 1.363639328168E+00 -5.876351543926E-01 9.876375160481E+00 3.044923220473E+01 3.848260934739E+01 1.897330938351E+02
 1.365050872211E+00 -3.576746422956E+00 6.337576365824E-01 2.657933763806E+00 -3.667768322698E-01 3.596148810770E-01 -1.249407325435E+03 -4.445230160310E+02 -9.547853720192E+00 3.481342801448E+00 -2.376269344247E+00 -7.730607318701E-02 -5.749106118316E+02 -1.091421937405E+01 -1.796875295377E+00 -1.701803617691E+00 8.967928903243E-01 1.099999712018E-01 -2.252561071367E+01 -3.422635786096E+01 -4.061526509477E-01 -3.419010075843E+00 1.895845566780E+00 1.360787694014E-01 2.601494476162E+03
 1.414563342626E-01 -3.375844685590E-01 -4.669154103502E-01 9.196719622866E-01 -2.046651052588E-01 1.134331758491E-01 -4.599054186376E+02 -7.682180525671E+02 -1.166284754530E+01 2.271519806366E-01 -8.058684671930E-01 3.134570921566E-01 -1.783727417529E+01 -1.827945533138E+03 -3.049853230202E+01 -2.002482133148E-01 -4.703300106255E-03 -8.263869409479E-02 3.538634421335E+01 6.189764747849E+01 -2.663925734696E-01 -6.865568725702E-01 -5.817733802999E-01 -1.110098542439E-01 1.939955641816E+02 3.037092657552E+03
 1.298763552982E-01 -2.968941084723E-01 4.829118457131E+00 5.224060949600E-01 -1.922769009616E-01 -3.222283633422E-01 -9.480767603912E+00 -1.166365634071E+01 -7.733127205203E+01 -2.672424344805E-01 3.279534761008E-01 -9.953966925282E+00 -2.532541855560E+00 -3.076176443669E+01 -7.451056630567E+01 -2.062687393447E-01 1.762418488919E-01 1.559324308298E-01 3.996842336976E-01 5.740041410209E-01 9.042696407483E+00 -2.198254773503E-01 5.748006205690E-02 -8.878364509367E-01 1.077283839606E+01 4.789967577088E+01 1.550287120421E+02
 7.766486880057E-01 -1.687113590157E+00 -4.545125107366E-01 1.745043404322E+00 -3.331813551963E-01 1.380887219694E-01 6.859380801148E-01 3.662531149250E-01 -2.438348481178E-02 -1.260782246965E+03 -4.337418895487E+02 -1.329844687208E+01 -1.274929468165E+03 4.619794507299E+02 2.094858945144E+00 -8.693363402753E-01 3.319308617062E-01 -7.947113599987E-02 3.850236148063E+01 1.303154220003E+00 -9.564512854613E-01 -2.224990347823E+01 -3.321870567067E+01 -3.556475722040E-01 5.043341268548E+01 -8.244399023892E-01 6.312862381120E-01 2.910350575259E+03
 -8.323423370497E-01 2.278926908225E+00 -3.607140784043E-01 -2.833776038306E+00 5.985494800105E-01 2.000920720205E-02 -1.722733455069E+00 -8.505241140832E-01 7.379873356100E-01 -4.349724970518E+02 -7.307301490272E+02 -1.166084217905E+01 4.533761178915E+02 -7.916657211124E+02 -9.251234287651E+00 1.126085481818E+00 -3.951195062322E-01 -2.417424439304E-01 -6.888453090822E+01 -1.804783767433E+00 -7.010321306521E-02 3.943708096771E+01 5.989050260385E+01 6.451218115921E-01 8.688122343896E+01 -3.499461325124E-02 1.213397867498E-02 -2.557730408467E+01 2.961932344113E+03
 1.221798245122E-01 1.585172726528E-01 4.754344682213E+00 -8.209804382488E-05 -3.209090458467E-01 4.025756389089E+00 -2.027453749251E-01 -1.110633043514E-01 -1.074484928322E+01 -1.317260047212E+01 -1.202778459314E+01 -8.675693286328E+01 1.583168303228E+00 -9.308632138867E+00 -8.076457119907E+01 3.881694179406E-02 -9.555006952517E-02 1.857517047181E-01 -9.350791169053E-01 -9.350023445861E-02 8.426326984046E+00 3.282177316170E-01 5.802978671550E-01 8.618293273000E+00 1.912006316323E+00 -1.902163746611E-01 1.227675854196E+01 1.367108584080E+01 4.608537207941E+01 1.920719822693E+02
 3.782198521631E-01 -4.920060088067E-01 -1.395106574493E-01 -4.501537575489E-01 -6.289220974793E-02 -4.229118995912E-01 -2.433912916432E-01 -1.398514997186E-01 -4.574248751084E-01 5.030203475197E-01 2.762078127325E-02 -2.040301906118E-02 -1.415676353475E+00 1.968211090227E-01 -2.224373075756E-01 -1.760246837650E-01 4.014501557854E-02 -5.707017972991E-01 -8.643412918214E-02 -9.314625799944E-02 -2.732089661383E-01 1.502164208785E-01 8.189306994618E-01 3.933057665390E-02 -1.586482324421E+00 4.303872355350E-01 3.350421410531E-01 -2.372469156727E-01 -7.148293616682E-02 2.842258821232E-01 2.869134711500E+03
 9.657678036997E-02 -3.913282579494E-01 8.350177684870E-02 8.129169798616E-01 -1.325038238773E-01 4.722603351935E-02 4.604524872522E-01 2.112803278209E-01 -6.559130739424E-02 3.303993554424E-01 -5.836177070598E-01 1.191544649555E-01 2.455760952574E-01 7.629456569371E-03 -2.385556877806E-01 -1.775880230857E-01 1.121150628385E-01 1.445527903119E-01 -2.061002487675E-01 5.153368953182E-01 -1.999171338578E-01 -6.926278070806E-01 -2.028554033466E-01 4.088362516229E-02 -1.004594703743E-01 -2.403139375546E-01 9.875240884705E-02 -1.631680467409E-01 4.295716831051E-01 2.045115190229E-01 -2.193000129076E+01 2.704617821899E+03
 1.814532489753E-01 -3.133321643803E-01 3.277762703407E-01 6.533074821649E-01 3.632364434614E-02 1.374889015132E-01 1.505309327955E-01 -1.942473011855E-01 5.516829877342E-01 6.622797264193E-02 -1.853162987162E-01 7.216736622531E-01 -3.023642476632E-01 -2.535193537259E-02 -2.534234362454E+00 -2.344642452332E-01 1.879408720601E-01 4.913907115658E+00 7.325901075288E-02 3.468101915909E-01 -9.792025237155E-01 -4.602279622231E-01 1.056404535235E-01 -1.001455989155E+00 -6.031431383678E-01 2.057648920964E-01 1.188813138905E+00 6.121804753356E-02 5.615287318501E-02 1.036544514108E+00 1.729870282280E+02 -2.075615031084E+02 2.249565611645E+02
 7.084504256708E-02 -4.252695938224E-01 -1.230593330954E-01 1.209224002478E+00 -3.024407865245E-01 -5.391851940988E-01 8.489987908436E-01 5.230992403436E-01 -4.287530573514E-01 3.393028933588E-01 -8.456365422414E-01 -2.425649815994E-01 1.028001226211E+00 -1.243400370011E-02 5.071962798291E-01 -2.628611804649E-01 1.319809209547E-01 -1.386642299321E-01 -3.907297100390E-01 6.831049387071E-01 7.324283701203E-02 -8.907677489596E-01 -6.029542301637E-01 6.706669062797E-02 6.843096878241E-01 -6.667585458693E-01 -5.848309831364E-02 -1.642995662426E-01 7.119818388829E-01 -6.006102143246E-03 4.848962272666E+01 8.044558031094E+01 -3.096777403448E-01 2.701524769249E+03
 1.428406899031E+00 -4.076902410672E+00 2.205874964838E-01 4.727398495541E+00 -7.965305414238E-01 1.528562198990E-01 2.327507653264E+00 7.512712611682E-01 -5.684170857871E-02 3.895182748494E+00 -3.893309971436E+00 -1.271972412117E-01 -1.934414647625E+00 4.552720118290E-01 7.777636595906E-01 -2.053872095649E+00 9.013002449520E-01 -1.147475851978E-01 -1.712942109312E+00 3.798337313142E+00 9.295561265822E-02 -4.965112000111E+00 6.237476916818E-01 2.395851563913E-01 -4.663452758351E+00 -2.547189218570E-01 -5.053225464325E-01 -2.057209275014E+00 2.765009798765E+00 -1.783401373688E-01 -1.104624184327E+00 -1.985035058963E+00 -3.226143911506E-01 2.569307581786E+02 2.938938285109E+03
 -1.478889862101E-01 3.956673420190E-01 4.733940666071E-02 -3.397737223452E-01 1.608648049574E-01 5.446532105262E-01 -1.168212781888E-01 -1.033807742785E-01 6.441067092516E-01 -3.623257047432E-01 2.916837648714E-01 1.086727045690E-01 4.881284766194E-01 -6.788239158269E-02 -2.257479161363E-01 2.109576035728E-01 -7.913605762543E-02 1.492625854676E-01 1.677770493509E-01 -1.557171853937E-01 1.051910460154E-01 2.741064484812E-01 -2.082304606433E-01 -1.518656159270E-01 7.685999308468E-01 -4.871987179117E-02 -8.493870307368E-02 1.490965684526E-01 -1.001590218376E-01 -2.366349591868E-01 3.395856532008E+00 8.599595517013E+00 1.303148317857E+01 2.174206111059E+02 -8.246363683828E+01 1.707034548363E+02
 -2.108229593124E+01 -3.254957207354E+01 -5.300044238354E-01 3.521224080543E+01 1.267171317917E-01 5.538931071358E-01 -1.251687231292E+00 -5.620250053384E-01 -5.093792929823E-01 -1.815040331596E+00 1.930553415533E+00 2.835203225368E-02 2.371486927563E-01 -2.620892856771E-01 -2.637797519759E-01 -1.256176229256E+03 -4.369329187186E+02 -1.354884542433E+00 8.563944748523E-01 -1.908707032923E+00 -5.468814304910E-01 2.638984089476E+00 -1.346081768032E-01 9.024761441270E-02 1.460074016194E+00 4.715206888749E-01 1.284415500149E-01 1.012573344623E+00 -1.566941919495E+00 1.062726432722E-01 -1.916863884187E+01 3.513708949568E+01 -1.004738720899E+00 6.473855501163E-01 2.442439097494E+00 -3.225489662277E-01 2.781706876473E+03
 3.744216288860E+01 5.931863347230E+01 5.198849344116E-01 -6.431954144459E+01 3.196910747188E-01 3.450353523768E-01 1.440400819190E+00 6.041150526916E-01 4.969458817913E-01 1.952055504976E+00 -2.182762815020E+00 1.466323463636E-01 -2.475833641030E-01 2.386392126764E-01 1.590514287722E-01 -4.442918864557E+02 -7.246693526125E+02 4.390372769381E+00 -9.164133563384E-01 2.078522642957E+00 7.230701614956E-02 -2.815774912401E+00 1.054599627642E-01 2.667054088771E-01 -1.603316030074E+00 -4.953452875119E-01 -2.548349269838E-01 -1.090720269428E+00 1.749454244692E+00 -1.701006654659E-01 -3.274094108773E+01 5.781469932660E+01 -1.583608068954E+00 -7.894740118721E-01 -2.683872009723E+00 4.230074999427E-01 3.156956227927E+01 2.794269155967E+03
 -4.595226273632E-02 -1.859023447069E-01 9.591928711161E+00 1.843470206495E-01 -1.825459514130E-01 9.433085417935E+00 -1.368240863597E-01 -2.252543057433E-01 -4.544538541599E-02 -1.413385322917E-01 3.969676286564E-01 -5.510997200570E-01 -1.204660050225E-01 -7.722645774695E-02 1.988684179235E+00 -4.165738692250E+00 4.780214469306E+00 -8.371508755185E+01 3.622134777093E-01 -3.051876569794E-02 5.532998711663E+00 -9.098649321955E-02 -3.167893465801E-01 5.185783500138E+00 1.526460170140E-01 1.403986300954E-01 -1.046477570289E+00 -1.667769078009E-02 -1.125231412077E-01 -1.058536630077E+00 -7.073779657697E-01 1.147507113057E-01 6.940808559041E+00 5.043567131572E-02 4.209993546918E-01 6.406755526558E-02 3.814479362475E+01 -4.567294636216E+01 1.941493532309E+02
 7.900929402451E-02 -3.153608688458E-01 -1.436727571650E-01 -1.795403568447E+01 -3.165062516396E+01 -2.185326370780E+00 4.718414327136E-01 1.443325014642E-01 -8.634689186498E-02 1.365045453581E-01 -3.518142752913E-01 9.020175356722E-02 4.314028382648E-01 -3.568467845936E-02 -8.087870850797E-01 -4.399876259761E-01 5.050518060798E-01 2.305399612095E-01 -1.914676368818E-01 4.288830179706E-01 -3.195325953234E-01 -5.065112135006E-01 -2.370435185177E-01 -5.874172250270E-01 2.406935521186E-01 -2.426399270813E-01 5.793539898516E-01 -1.621550042667E-02 2.369253976869E-01 4.490173769153E-01 3.969537851027E+01 -7.004513498579E+01 3.790560369707E+00 -2.349858890108E+01 4.026928210901E+01 -3.566960149096E+00 3.975006381501E+01 6.539018530841E+01 -2.196029877463E+00 2.816142202196E+03
 2.513421922682E-01 -7.952086208685E-01 2.577286493204E-01 3.477494516314E+01 5.643445278220E+01 2.678314189336E+00 4.915871228363E-01 2.128790537790E-01 2.751028065863E-01 7.738076734542E-01 -7.942855759266E-01 -4.149704734084E-03 -1.334738101539E-01 1.208683766759E-01 2.787822093256E-02 2.759008290897E-02 2.787986027298E-01 1.391362583279E-01 -3.035037628187E-01 7.112662645423E-01 -6.308932000798E-02 -1.032411762136E+00 -4.902719071540E-02 -2.286046314064E-01 -6.396218346741E-01 -1.950101536846E-01 -1.368752593149E-01 -4.665727695597E-01 6.978011867560E-01 -1.478118890931E-01 -2.059131394200E-01 5.113379583873E-02 -1.003257976388E-01 -4.283108857000E+01 7.303227813276E+01 -4.081270658139E+00 -1.598200044203E-01 -6.990877717217E-01 4.134387459590E-01 -6.964323339990E+01 2.762002186086E+03
 1.010748077708E-01 3.450093495321E-01 -1.269904022488E+00 -1.803929739903E+00 -1.779385645508E-01 5.826061846806E+00 -2.605072598060E-01 3.001695175300E-01 -3.535805291235E+00 1.091415087834E-02 1.013739016747E-02 -2.812811807126E+00 -4.486904984661E-01 -2.057272599772E-01 9.464048012052E+00 4.607620828210E-01 -7.999615998330E-01 -1.024472247564E+01 -3.303248857281E-01 -8.254217506538E-01 3.110118920067E+00 2.121545398530E+00 3.357905055314E-01 8.014374391835E+00 2.268871512789E-01 6.364076168279E-02 -4.017809293872E+00 1.243301130875E-01 1.205099907761E-01 -2.967860230783E+00 2.077253728930E+00 -2.637239942292E+00 6.026353017161E+00 -7.507359112637E-02 3.809117997739E+00 1.091861134531E+01 3.554701199799E-01 1.576277496893E+00 1.150906050309E+01 1.637865856653E+02 -7.877400553778E+01 2.236708683008E+02
 -1.292342364119E+00 3.405676443872E+00 -1.440000252639E-01 -2.851665430851E+00 6.002415759080E-01 5.373949381226E-01 -1.118642662014E+00 -2.382446753852E-01 8.885737493890E-01 -3.305311277011E+00 2.626146282400E+00 3.338536838764E-01 3.394195091831E+00 -4.740222497020E-01 -1.223082671155E+00 1.653344307795E+00 -8.236184578451E-01 3.314873082038E-01 1.219812358188E+00 -2.488010665585E+00 -1.173428653008E-01 3.290182308683E+00 -1.445609767198E+00 -4.259979536203E-01 5.576940858768E+00 -5.684651293160E-01 4.728142436676E-01 1.685513041791E+00 -1.576831773883E+00 2.603256991046E-02 -1.303491390224E+03 4.558843299162E+02 -1.307990784108E+02 -5.114879742270E+02 -1.416258541496E+01 -4.586597641087E+01 -1.814936440643E+00 2.004566220957E+00 -7.404018862053E-01 -2.515695769500E-01 9.729368539683E-01 -3.409113961605E+00 2.544131740276E+03
 -1.127129437361E+00 3.513152256158E+00 3.340550910573E-02 -5.146476434281E+00 9.778182448814E-01 2.491285862039E-01 -3.042035510882E+00 -1.442416754593E+00 3.278008385701E-01 -3.272079407411E+00 4.123043672732E+00 2.144154202982E-01 -5.595545314267E-01 -3.733942424544E-01 -8.528047115115E-01 1.846162964413E+00 -6.989541982488E-01 1.941369252871E-01 1.859898515542E+00 -3.782015917958E+00 -1.456783304626E-02 4.895612053053E+00 5.461154050542E-01 -3.997395572863E-01 1.853701337480E+00 1.407328282362E+00 3.322357697153E-01 1.770610099849E+00 -3.309603212074E+00 2.444331219498E-02 4.893324689792E+02 -7.598628778091E+02 7.829034655248E+01 -4.847175927278E+01 -1.655038024450E+03 5.981305401800E+01 -2.702459096461E+00 3.083040866296E+00 8.666938193877E-02 7.776321050311E-01 1.051856752270E+00 -3.291977792025E+00 -1.293073882093E+02 2.802020672824E+03
 -3.764837513052E-01 9.529416528512E-01 -4.051123567913E-01 -1.411822911086E+00 -2.398539009807E-03 -1.407150458691E+00 -5.063863351101E-01 2.034521370909E-01 -1.657841250123E+00 -9.247887994817E-01 8.723132901275E-01 -6.175327010290E-01 5.331264872947E-01 -2.736289241001E-02 1.644364796357E+00 5.529194038528E-01 -2.895933788570E-01 -4.580313476349E-01 2.404847815668E-01 -1.250715906095E+00 2.732157915487E-01 1.631517536413E+00 -1.728435207217E-01 7.407817065320E-01 1.248040861891E+00 -2.200226180583E-01 -2.957368481762E-01 5.203580638623E-01 -6.067009051410E-01 -2.842642460008E-02 -1.373112267649E+02 7.776637059217E+01 -1.061514619254E+02 -4.370005624314E+01 6.022130895437E+01 -8.831262351671E+01 -3.215654082335E-01 1.762101071474E-01 5.046598828979E+00 7.415568107711E-01 -2.523206305896E-01 -4.827772179226E+00 2.866398728991E+02 -7.914632295273E+01 2.889539197250E+02
 3.362971799385E-01 -1.246279778488E+00 8.234156918230E-02 1.718450828939E+00 -1.542264636068E-01 6.445856079536E-01 9.303490183979E-01 3.778578888136E-01 3.333861522276E-01 1.161353215497E+00 -1.404915610355E+00 5.583762047248E-02 -3.302505234539E-03 1.341588837677E-01 2.910244363150E-01 -2.001345627395E+01 3.511659477400E+01 -1.201348748604E+00 -5.287456972333E-01 1.361497546515E+00 2.595975905472E-01 -1.790362671549E+00 -1.162368517809E-01 2.540792447029E-01 -8.635082249599E-01 -3.577507916897E-01 -2.585424439088E-01 -6.723529339604E-01 1.102449519432E+00 -1.655069942075E-01 -1.248213349889E+03 -4.336634119472E+02 -3.676355951104E+01 -7.885676828657E-01 -1.728388825981E+00 9.920526478100E-01 -1.168060656133E+03 4.211701047899E+02 -3.141341573964E+01 -4.694250931949E+02 -1.852328296007E+01 -1.700945362946E+01 -2.008040959598E+01 -3.385502691276E+01 9.568767217294E-01 2.775317411948E+03
 -3.059084432659E-01 7.592688175970E-01 -1.173556651082E-01 -1.060811872878E+00 5.003189139445E-02 -1.403613537732E+00 -5.976053459053E-01 -1.710173971121E-01 -3.896250743530E-01 -7.494789102056E-01 8.595410351531E-01 -2.173383220451E-01 7.412816007194E-02 -7.019799124749E-02 3.316282886439E-01 -3.247166173361E+01 5.824624636720E+01 -2.009904195817E+00 3.473852342354E-01 -8.671253745472E-01 2.251516149343E-01 1.072236586626E+00 4.461933421307E-02 -4.371829960258E-02 6.095776385932E-01 1.657413687524E-01 3.421273348338E-02 4.098444094394E-01 -7.128633239678E-01 2.255047450696E-02 -4.465980964026E+02 -7.239003214829E+02 1.245774338596E+01 4.637602045931E-01 1.004889285331E+00 -9.030785281690E-01 4.215537610226E+02 -7.128232483893E+02 2.215531927998E+01 -3.104676611963E+00 -1.475791260644E+03 4.310367144965E+01 3.728932783418E+01 6.296229191029E+01 -1.635097199181E+00 2.092989069807E+01 2.791128311880E+03
 1.764611312300E-01 -1.193933531806E-02 5.320761294914E+00 9.154857857044E-01 7.054075260095E-01 -7.448540390981E+00 3.931177978380E-01 -2.972752096250E-01 2.256970466662E+00 -3.802826636141E-01 -6.257241915664E-02 1.613548375465E+00 7.486282968110E-01 -8.550723784333E-02 -5.303454133518E+00 7.567130492048E-01 -6.827084067300E-01 9.650835171923E+00 2.725030631586E-01 6.182454410067E-01 -1.715348344799E+00 -8.288512906509E-01 -4.567929218007E-01 -2.203368513224E+00 5.607701013122E-01 -2.893593039414E-02 2.122845786879E+00 2.461181234932E-01 1.880423175958E-01 1.564860897509E+00 -3.425143847729E+01 1.363402742901E+01 -8.328530776891E+01 -1.520851468526E-01 -8.884705864830E-01 -9.793152633457E+00 -3.508181527907E+01 2.329803085282E+01 -8.304778169599E+01 -1.655556590820E+01 3.922278055045E+01 -9.795018108907E+01 -3.744049209161E+00 -5.105332106640E+00 8.440851856790E+00 7.960879031904E+01 -7.102301390435E+01 2.044585789842E+02
 -8.065192191322E-01 2.232170992764E+00 -1.530076778675E-01 -2.556832113288E+00 4.798504946064E-01 -1.761690216375E-01 -1.225475610062E+00 -3.350353356111E-01 1.526982487045E-01 -2.070372777329E+00 2.021072745739E+00 -8.715851776675E-03 1.234144710692E+00 -2.352254969130E-01 1.497135371567E-02 1.145759421824E+00 -6.172587156753E-01 -3.033844006863E-02 8.942866046775E-01 -2.004837425010E+00 1.422165452780E-01 2.623532346902E+00 -4.273774622589E-01 1.040631884754E-01 2.721854596881E+00 3.190147920301E-02 -3.367230085386E-02 1.047212811727E+00 -1.353241904234E+00 -1.952295922956E-01 -2.065563596550E-01 3.794122329609E-01 1.178976709944E+00 -1.425192742286E+03 -5.047083952233E+02 -9.807349492701E+01 -1.308782539743E+00 1.529181137454E+00 -1.298530351611E-01 -1.338182385293E+03 4.620240079176E+02 -9.905797363179E+01 4.759655953452E+01 -3.243740114011E+00 1.997933962944E+00 4.208521348328E+01 -8.950216303186E-01 1.896355179087E+00 3.045793335848E+03
 9.319526130379E-01 -2.131632501063E+00 3.452758495941E-01 8.803564399556E-01 -9.043419868197E-02 7.263370072056E-01 -7.568111421494E-02 -5.073007315549E-01 2.550248012711E-01 2.114345781083E+00 -1.032108879703E+00 2.558446832049E-01 -3.716259024558E+00 3.540739241246E-01 -3.431275974502E-01 -1.024843478085E+00 4.902521718211E-01 1.267200760057E-01 -4.595446603366E-01 1.225750574834E+00 -1.486986885534E-01 -1.599522827791E+00 1.787584501450E+00 -2.515738987382E-02 -4.994538870824E+00 1.237064074991E+00 -5.908621874070E-02 -1.080509057572E+00 4.137931785008E-01 1.080685425792E-01 -1.783478139173E+00 2.525853457688E-01 -9.117698673083E-02 -5.049938841926E+02 -8.418163813949E+02 -1.732054401973E+01 6.101486286886E-01 -5.096806849111E-01 6.829439005805E-02 4.484147386763E+02 -7.613783532873E+02 4.860745223190E+01 -8.309743236274E+01 1.509418611758E+00 -6.997520545243E+00 7.417285552982E+01 -2.508555697581E-01 6.518743120590E+00 4.085500895470E+01 2.537901854034E+03
 1.783857046147E-01 -2.682292037467E-01 4.540383949249E-01 4.321665917731E-01 -2.629309698933E-01 5.711407305254E+00 1.184926003638E-01 -3.552448407188E-01 1.396743611661E+00 -5.211754338890E-02 -1.592149414035E-01 1.051329469422E+00 -1.569946553681E-01 -9.159369192407E-02 -3.592784823588E+00 -2.948072133220E-01 3.271133870912E-01 5.497707543522E-01 1.594002744601E-01 4.965856303654E-01 -1.090243655644E+00 -5.550606491854E-01 1.004518009962E-01 -1.382783843781E+00 -4.229500297830E-01 2.679941046985E-01 1.542016082164E+00 1.009613704167E-01 -7.616153023884E-03 1.029907636175E+00 3.319865066439E-02 -3.673362205121E-01 -9.125655271290E+00 -9.718466422881E+01 -1.846932887097E+01 -7.538930083388E+01 5.469197000323E-02 3.353644136465E-01 3.596535732731E+00 -9.975373299252E+01 5.261321437040E+01 -9.644073467060E+01 8.837075731125E+00 1.698288055461E+00 1.234697341483E+01 -1.125614556584E-01 -5.937865269895E-01 1.492358644042E+01 2.177902699218E+02 -6.551769182200E+01 1.734698120341E+02
 8.863387577536E-01 -2.207566196321E+00 2.535553546628E-01 -1.254882231507E+03 4.538198039476E+02 -2.832456513123E+01 1.327153089331E+00 5.325129867963E-01 -2.448116480948E-01 2.173629554045E+00 -2.228175890991E+00 -1.016631720599E-01 -1.028324106271E+00 2.659717243863E-01 1.728517344095E-01 3.920712659194E+01 -3.299798542613E-01 7.719053909909E-01 -1.004111498080E+00 1.987442134817E+00 -3.201309364449E-01 -2.287312538802E+01 3.635969852744E+01 -5.380308308756E-01 -2.581941558197E+00 -2.166591558042E-01 -1.042995234043E-01 -1.111648985005E+00 1.654379372899E+00 1.290446001521E-01 -6.660157555480E-02 -4.340243646504E-01 -7.775021868011E-01 -2.372004361753E-01 -3.082643089645E+00 -2.144466643271E-01 1.143614391507E+00 -1.557415434887E+00 8.227006634500E-01 -1.126368157083E+03 -3.777609911793E+02 -4.757909774194E+01 2.272481903918E+00 2.644241369223E+00 1.191783769964E+00 3.418186343412E+01 6.834976823840E-01 8.084436394843E-01 -1.661586711267E+01 -3.455799065415E+01 -1.055396881543E+00 2.760366601869E+03
 -9.942085647561E-01 3.307710604240E+00 -2.017240424687E-01 4.627816984590E+02 -7.547091129545E+02 6.622548875181E+00 -2.775248889153E+00 -1.254242144518E+00 1.513740769770E-01 -3.076915750083E+00 3.811292412999E+00 2.073297990576E-01 -3.941922560164E-01 -3.074274987452E-01 -6.372930776864E-01 6.859955959310E+01 -1.365537621755E+00 1.305710650055E+00 1.651517700819E+00 -3.544672603319E+00 7.824307814256E-02 -2.927177466447E+01 6.086013523103E+01 -4.425934666144E-01 1.898871611447E+00 1.185999335709E+00 3.677232562811E-01 1.642015585690E+00 -3.034393951017E+00 2.196017039556E-01 -8.617277913241E-01 1.056274343001E+00 5.470592910001E-01 1.478158551497E+00 4.683951434882E+00 -4.835564223697E-02 -2.302770798000E+00 2.649701534862E+00 -4.992524811586E-02 -3.791259292646E+02 -6.598830448925E+02 -1.575844833283E+01 -2.368562837748E+00 -5.629058063155E+00 -1.356554839416E+00 -6.160881779136E+01 -9.116444591513E-01 -3.047547804317E+00 3.052362988729E+01 5.983723533173E+01 8.768034302245E-01 -2.499415957908E+01 2.857476650472E+03
 -1.717983986823E-01 3.288608130196E-01 4.704731641670E+00 -2.948788838551E+01 7.021070223990E+00 -8.521796405550E+01 -1.275770164948E-01 2.313678094668E-02 -3.667810955182E-01 -9.853740439260E-02 1.830923800691E-01 4.632395525905E+00 -1.402470047018E-01 -1.821624755892E-03 2.064409858055E-02 1.502832600644E+00 -2.028701029712E-01 8.533259074904E+00 6.537968160023E-02 -4.004745622442E-01 -1.620112035499E-01 -4.072216128642E-01 4.444552682245E-01 9.866568648002E+00 -1.093299564483E-01 7.447929368978E-02 4.502768272916E-02 1.013986820241E-01 -1.732150515100E-01 2.364956638947E-01 2.740708599677E-01 4.805383723942E-01 4.181714794246E+00 -5.353662381020E-01 3.366213043159E-01 5.031924666906E+00 -6.571070415675E-01 -6.997520286245E-01 -8.902246739975E+00 -4.660728985230E+01 -1.515343372014E+01 -8.286256290878E+01 -1.974014349970E-02 -8.661727717688E-01 5.955169530582E-01 3.044450188155E+00 9.602224101864E-01 7.523272399620E+00 -2.810957586259E+00 -3.750501770776E+00 1.009353932020E+01 8.677837421024E+01 4.491490464834E+01 1.946837637809E+02