#BIOSYM hessian 1
@Type: Hessian Update
@Units
 distance: 	A
 energy: 	Kcal/Mol
#header
@natom 69

#label
C1      C2      C3      C4      C5      C6      C7      C8      C9      C10     C11     C12     C13     C14     C15     C16     C17     C18     C19     C20     C21     C22     C23     C24     C25     C26     C27     C28     C29     C30     C31     C32     C33     C34     C35     C36     C37     C38     C39     C40     C41     C42     C43     C44     C45     C46     C47     C48     C49     H50     H51     H52     H53     H54     H55     H56     H57     H58     H59     H60     H61     H62     H63     H64     H65     H66     O67     O68     H69

#element
C  C  C  C  C  C  C  C  C  C  C  C  C  C  C  C  C  C  C  C  C  C  C  C  C  C  C  C  C  C  C  C  C  C  C  C  C  C  C  C  C  C  C  C  C  C  C  C  C  H  H  H  H  H  H  H  H  H  H  H  H  H  H  H  H  H  O  O  H 

#matrix
207
 2.781092150165E+03
 -2.589272205756E+01 2.824548749054E+03
 0.000000000000E+00 0.000000000000E+00 0.000000000000E+00
 3.927868441413E+01 6.734338709087E+01 0.000000000000E+00 2.789886396325E+03
 -1.383316695660E-01 8.199011434368E-02 0.000000000000E+00 -1.439266590085E+01 2.764795871011E+03
 0.000000000000E+00 0.000000000000E+00 0.000000000000E+00 0.000000000000E+00 0.000000000000E+00 0.000000000000E+00
 -1.967308137376E+01 3.431709718715E+01 0.000000000000E+00 -2.340939339895E-01 -1.334933860211E-02 0.000000000000E+00 2.815109170936E+03
 -3.414239286513E+01 5.946925777753E+01 0.000000000000E+00 2.576795887059E-01 1.688469816112E-01 0.000000000000E+00 -3.383779763096E+01 2.814552943441E+03
 0.000000000000E+00 0.000000000000E+00 0.000000000000E+00 0.000000000000E+00 0.000000000000E+00 0.000000000000E+00 0.000000000000E+00 0.000000000000E+00 0.000000000000E+00
 3.792975570652E+01 -6.867738520387E+01 0.000000000000E+00 -1.951694115136E+01 3.477810469430E+01 0.000000000000E+00 4.268003103378E+01 7.179986689905E+01 0.000000000000E+00 2.784425935465E+03
 -6.339370109813E-01 1.201377375945E+00 0.000000000000E+00 -3.266527521410E+01 5.758889870818E+01 0.000000000000E+00 -6.391623183641E-02 -1.070146608890E+00 0.000000000000E+00 -3.176802456487E+01 2.837476686191E+03
 0.000000000000E+00 0.000000000000E+00 0.000000000000E+00 0.000000000000E+00 0.000000000000E+00 0.000000000000E+00 0.000000000000E+00 0.000000000000E+00 0.000000000000E+00 0.000000000000E+00 0.000000000000E+00 0.000000000000E+00
 -7.060867245383E-02 -4.204852349143E-02 0.000000000000E+00 1.547502624214E-01 -1.127342156738E-02 0.000000000000E+00 4.245416852539E+01 -7.290812372456E+01 0.000000000000E+00 -2.130766747605E+01 3.833523412471E+01 0.000000000000E+00 2.639325999331E+03
 8.872690928448E-02 -1.854640110215E-01 0.000000000000E+00 -1.273485856167E+00 9.591079981448E-02 0.000000000000E+00 5.838085965554E-01 -1.126486231773E+00 0.000000000000E+00 -3.620728382897E+01 6.377046098585E+01 0.000000000000E+00 -2.193909957640E+02 2.895528260443E+03
 0.000000000000E+00 0.000000000000E+00 0.000000000000E+00 0.000000000000E+00 0.000000000000E+00 0.000000000000E+00 0.000000000000E+00 0.000000000000E+00 0.000000000000E+00 0.000000000000E+00 0.000000000000E+00 0.000000000000E+00 0.000000000000E+00 0.000000000000E+00 0.000000000000E+00
 -1.230346485566E+03 4.469688642310E+02 0.000000000000E+00 -4.636788970002E+02 -6.583335437202E+00 0.000000000000E+00 -5.377907492566E-03 1.674655571025E-01 0.000000000000E+00 3.691667029303E-01 9.143328182533E-01 0.000000000000E+00 -1.686335521144E-01 3.154902666717E-01 0.000000000000E+00 2.817314570900E+03
 4.417777786382E+02 -7.416164688556E+02 0.000000000000E+00 -4.952136815374E+00 -1.433457821625E+03 0.000000000000E+00 -6.860183731092E-02 5.462994767464E-02 0.000000000000E+00 1.032827607938E+00 -5.575236220830E-01 0.000000000000E+00 4.844213936347E-02 2.192955631770E-01 0.000000000000E+00 -4.321597696621E-01 2.785816976396E+03
 0.000000000000E+00 0.000000000000E+00 0.000000000000E+00 0.000000000000E+00 0.000000000000E+00 0.000000000000E+00 0.000000000000E+00 0.000000000000E+00 0.000000000000E+00 0.000000000000E+00 0.000000000000E+00 0.000000000000E+00 0.000000000000E+00 0.000000000000E+00 0.000000000000E+00 0.000000000000E+00 0.000000000000E+00 0.000000000000E+00
 -1.190036553715E+03 -4.135450557514E+02 0.000000000000E+00 5.029138039412E-01 -2.706893849782E-01 0.000000000000E+00 -1.265877489080E+03 4.467770665887E+02 0.000000000000E+00 -4.862109453710E+02 -7.734672512899E+00 0.000000000000E+00 3.508146148902E-01 -2.288162253753E-01 0.000000000000E+00 -1.968676799886E+01 -3.359183998467E+01 0.000000000000E+00 2.820698413424E+03
 -4.134221532510E+02 -7.058329094874E+02 0.000000000000E+00 -1.243744929510E+00 -3.843946362169E-01 0.000000000000E+00 4.482822256782E+02 -7.437664162957E+02 0.000000000000E+00 -1.018374651995E+01 -1.512840880539E+03 0.000000000000E+00 -7.476602142973E-01 -1.242217099194E-01 0.000000000000E+00 3.424197344519E+01 5.799835470104E+01 0.000000000000E+00 -2.805768566408E+01 2.844705470788E+03
 0.000000000000E+00 0.000000000000E+00 0.000000000000E+00 0.000000000000E+00 0.000000000000E+00 0.000000000000E+00 0.000000000000E+00 0.000000000000E+00 0.000000000000E+00 0.000000000000E+00 0.000000000000E+00 0.000000000000E+00 0.000000000000E+00 0.000000000000E+00 0.000000000000E+00 0.000000000000E+00 0.000000000000E+00 0.000000000000E+00 0.000000000000E+00 0.000000000000E+00 0.000000000000E+00
 1.538139772221E+00 -1.044020350038E-01 0.000000000000E+00 -1.212659995431E+03 -4.257114233285E+02 0.000000000000E+00 -3.470056016831E-01 5.073123747487E-01 0.000000000000E+00 -1.217404873549E+03 4.463984446687E+02 0.000000000000E+00 -8.965935746138E-01 1.056259871515E+00 0.000000000000E+00 3.717511754859E+01 -1.138972536325E+00 0.000000000000E+00 4.256685657530E+01 1.680281053857E-01 0.000000000000E+00 2.786223302216E+03
 3.966942770171E-01 -1.326592570950E+00 0.000000000000E+00 -4.291754678895E+02 -7.096453129731E+02 0.000000000000E+00 -9.630083507278E-01 3.767148382429E-01 0.000000000000E+00 4.440290189356E+02 -7.407578681877E+02 0.000000000000E+00 -1.768094802774E+00 4.801324781070E-01 0.000000000000E+00 -6.757999851755E+01 1.621996270324E+00 0.000000000000E+00 7.205836602636E+01 -7.079035821620E-01 0.000000000000E+00 -6.300008771673E+00 2.816185422966E+03
 0.000000000000E+00 0.000000000000E+00 0.000000000000E+00 0.000000000000E+00 0.000000000000E+00 0.000000000000E+00 0.000000000000E+00 0.000000000000E+00 0.000000000000E+00 0.000000000000E+00 0.000000000000E+00 0.000000000000E+00 0.000000000000E+00 0.000000000000E+00 0.000000000000E+00 0.000000000000E+00 0.000000000000E+00 0.000000000000E+00 0.000000000000E+00 0.000000000000E+00 0.000000000000E+00 0.000000000000E+00 0.000000000000E+00 0.000000000000E+00
 1.696150398296E-02 3.779422497999E-02 0.000000000000E+00 -4.226075976645E-01 -1.366179880375E-01 0.000000000000E+00 -1.196111355052E+03 -4.075818084367E+02 0.000000000000E+00 -1.081825097231E-01 6.843376224538E-01 0.000000000000E+00 -5.234841542574E+02 1.084383403715E+01 0.000000000000E+00 4.125284621222E-02 -2.538744596835E-02 0.000000000000E+00 -1.962626497901E+01 -3.431268542576E+01 0.000000000000E+00 -2.154149174742E-01 -6.511535546235E-02 0.000000000000E+00 2.778015049229E+03
 -1.187038568106E-01 1.084201315255E-01 0.000000000000E+00 1.024236686287E+00 3.345414261764E-02 0.000000000000E+00 -4.162039704527E+02 -7.035707917664E+02 0.000000000000E+00 1.332000731481E+00 5.980615300465E-01 0.000000000000E+00 1.248943372905E+01 -1.634597410281E+03 0.000000000000E+00 -2.324015798309E-01 -1.533233812631E-01 0.000000000000E+00 3.419349667313E+01 5.981658379684E+01 0.000000000000E+00 -1.091824233833E+00 -1.903108009386E-01 0.000000000000E+00 -3.202038703456E+01 2.954182847187E+03
 0.000000000000E+00 0.000000000000E+00 0.000000000000E+00 0.000000000000E+00 0.000000000000E+00 0.000000000000E+00 0.000000000000E+00 0.000000000000E+00 0.000000000000E+00 0.000000000000E+00 0.000000000000E+00 0.000000000000E+00 0.000000000000E+00 0.000000000000E+00 0.000000000000E+00 0.000000000000E+00 0.000000000000E+00 0.000000000000E+00 0.000000000000E+00 0.000000000000E+00 0.000000000000E+00 0.000000000000E+00 0.000000000000E+00 0.000000000000E+00 0.000000000000E+00 0.000000000000E+00 0.000000000000E+00
 -1.035393575425E-01 2.689859176054E-01 0.000000000000E+00 8.284652053524E-01 1.460600845691E-01 0.000000000000E+00 -7.632720449962E-01 -3.577751263570E-01 0.000000000000E+00 -1.199432061403E+03 -4.142040871446E+02 0.000000000000E+00 -1.341999341777E+03 4.916214290345E+02 0.000000000000E+00 2.166035065328E-01 -2.723511118612E-01 0.000000000000E+00 3.801212881528E+01 1.044028149916E+00 0.000000000000E+00 -1.894061871578E+01 -3.089021340197E+01 0.000000000000E+00 4.956862614753E+01 -2.094068599415E-01 0.000000000000E+00 2.898162958467E+03
 2.843628713429E-01 -1.737205825550E-02 0.000000000000E+00 -9.793416562785E-01 -2.592520787039E-01 0.000000000000E+00 -7.218111792258E-01 1.943440305731E+00 0.000000000000E+00 -4.042677579716E+02 -6.987268709416E+02 0.000000000000E+00 4.882097838595E+02 -8.125933953035E+02 0.000000000000E+00 -6.057282771281E-01 -1.692669023217E-01 0.000000000000E+00 -6.666939825916E+01 -1.864069573914E+00 0.000000000000E+00 3.130741300761E+01 5.135552553777E+01 0.000000000000E+00 8.059290486048E+01 -1.259287552557E+00 0.000000000000E+00 -8.757551267719E+01 2.826828711306E+03
 0.000000000000E+00 0.000000000000E+00 0.000000000000E+00 0.000000000000E+00 0.000000000000E+00 0.000000000000E+00 0.000000000000E+00 0.000000000000E+00 0.000000000000E+00 0.000000000000E+00 0.000000000000E+00 0.000000000000E+00 0.000000000000E+00 0.000000000000E+00 0.000000000000E+00 0.000000000000E+00 0.000000000000E+00 0.000000000000E+00 0.000000000000E+00 0.000000000000E+00 0.000000000000E+00 0.000000000000E+00 0.000000000000E+00 0.000000000000E+00 0.000000000000E+00 0.000000000000E+00 0.000000000000E+00 0.000000000000E+00 0.000000000000E+00 0.000000000000E+00
 -3.156312757814E-02 -3.831937656414E-02 0.000000000000E+00 -8.974512674790E-02 -1.685956114838E-02 0.000000000000E+00 5.766949047321E-03 4.426860300609E-03 0.000000000000E+00 4.471308692916E-02 -1.249837943921E-02 0.000000000000E+00 -2.270477410496E-02 3.096172108945E-02 0.000000000000E+00 3.736877636991E-02 7.836675607128E-02 0.000000000000E+00 8.667110727118E-03 -9.242350204628E-03 0.000000000000E+00 -5.470515054899E-02 4.188865078389E-02 0.000000000000E+00 -5.141283046719E-04 -2.364807100202E-02 0.000000000000E+00 -3.453921227651E-03 -7.447862776395E-02 0.000000000000E+00 2.810119215262E+03
 -9.656781539744E-03 -7.708783513194E-02 0.000000000000E+00 4.560760390424E-02 -1.048045575016E-01 0.000000000000E+00 -1.560457590889E-03 9.722633963245E-04 0.000000000000E+00 3.814918460301E-02 1.091979698441E-01 0.000000000000E+00 -1.390104237797E-02 -8.392073641147E-02 0.000000000000E+00 -1.638425358090E-02 1.533899674472E-01 0.000000000000E+00 4.641173395944E-03 -1.282802940208E-04 0.000000000000E+00 -8.014307805912E-02 -8.233772834000E-02 0.000000000000E+00 -2.473342889656E-02 3.049033997136E-02 0.000000000000E+00 5.436426070121E-02 1.586737619381E-01 0.000000000000E+00 1.873033403285E+00 2.801028256699E+03
 0.000000000000E+00 0.000000000000E+00 0.000000000000E+00 0.000000000000E+00 0.000000000000E+00 0.000000000000E+00 0.000000000000E+00 0.000000000000E+00 0.000000000000E+00 0.000000000000E+00 0.000000000000E+00 0.000000000000E+00 0.000000000000E+00 0.000000000000E+00 0.000000000000E+00 0.000000000000E+00 0.000000000000E+00 0.000000000000E+00 0.000000000000E+00 0.000000000000E+00 0.000000000000E+00 0.000000000000E+00 0.000000000000E+00 0.000000000000E+00 0.000000000000E+00 0.000000000000E+00 0.000000000000E+00 0.000000000000E+00 0.000000000000E+00 0.000000000000E+00 0.000000000000E+00 0.000000000000E+00 0.000000000000E+00
 -2.284893134530E-02 4.857729609795E-02 0.000000000000E+00 3.237540429875E-02 1.305654811660E-01 0.000000000000E+00 -5.797951166990E-03 -1.436719077450E-02 0.000000000000E+00 -9.169814134463E-02 -1.083764936526E-01 0.000000000000E+00 6.659658253529E-02 -2.325941701478E-02 0.000000000000E+00 2.587213540695E-02 -1.127434792110E-01 0.000000000000E+00 -1.359661578624E-02 1.508331945845E-02 0.000000000000E+00 1.503224553920E-01 1.524904087550E-01 0.000000000000E+00 7.901315952587E-03 3.992608024748E-02 0.000000000000E+00 -5.228230293799E-02 6.187698337142E-02 0.000000000000E+00 4.135649652844E+01 7.187503820121E+01 0.000000000000E+00 2.780854913370E+03
 -1.335880801123E-02 -1.424402060548E-02 0.000000000000E+00 -2.670597776006E-02 2.961013605975E-02 0.000000000000E+00 7.249622570810E-03 -2.250042615207E-02 0.000000000000E+00 -2.247397673094E-02 -8.117036926073E-02 0.000000000000E+00 8.160021447212E-02 -6.213617737772E-02 0.000000000000E+00 4.036263405656E-02 1.263490373957E-02 0.000000000000E+00 -3.945822597993E-02 3.488942660805E-02 0.000000000000E+00 9.600929985842E-02 1.523882095034E-01 0.000000000000E+00 5.234285097126E-03 5.258389572961E-02 0.000000000000E+00 -4.406543046256E-02 2.597161931946E-01 0.000000000000E+00 -8.522409643537E-01 -1.529046775182E+00 0.000000000000E+00 2.779143893160E+02 2.860982474593E+03
 0.000000000000E+00 0.000000000000E+00 0.000000000000E+00 0.000000000000E+00 0.000000000000E+00 0.000000000000E+00 0.000000000000E+00 0.000000000000E+00 0.000000000000E+00 0.000000000000E+00 0.000000000000E+00 0.000000000000E+00 0.000000000000E+00 0.000000000000E+00 0.000000000000E+00 0.000000000000E+00 0.000000000000E+00 0.000000000000E+00 0.000000000000E+00 0.000000000000E+00 0.000000000000E+00 0.000000000000E+00 0.000000000000E+00 0.000000000000E+00 0.000000000000E+00 0.000000000000E+00 0.000000000000E+00 0.000000000000E+00 0.000000000000E+00 0.000000000000E+00 0.000000000000E+00 0.000000000000E+00 0.000000000000E+00 0.000000000000E+00 0.000000000000E+00 0.000000000000E+00
 -2.038906439132E+01 -3.469106965601E+01 0.000000000000E+00 3.927156743480E+01 -2.412690020459E-01 0.000000000000E+00 2.403091436123E-02 5.387065493032E-02 0.000000000000E+00 2.269196804093E-01 1.781377285031E-01 0.000000000000E+00 -1.185379134157E-01 -2.093104333861E-01 0.000000000000E+00 -1.242572290718E+03 -4.362645952341E+02 0.000000000000E+00 6.566118822865E-02 -1.889625679760E-01 0.000000000000E+00 -2.672515098993E-01 -9.645462356034E-02 0.000000000000E+00 -1.086279981303E-01 1.623928924594E-01 0.000000000000E+00 2.490863021143E-01 -2.382291956676E-01 0.000000000000E+00 -1.937232668375E+01 3.389192939879E+01 0.000000000000E+00 -4.485765398448E-02 4.403233816647E-02 0.000000000000E+00 2.777218221846E+03
 3.562251307024E+01 6.017387243216E+01 0.000000000000E+00 -6.750331521628E+01 1.049272930250E-01 0.000000000000E+00 7.611288300072E-02 2.837656801023E-02 0.000000000000E+00 -9.177709100842E-02 7.926097943050E-02 0.000000000000E+00 -2.796754508067E-03 2.025354554227E-03 0.000000000000E+00 -4.413724509473E+02 -7.271640248718E+02 0.000000000000E+00 -9.164499476174E-02 2.652392046981E-02 0.000000000000E+00 9.840638604632E-02 -1.771740654078E-01 0.000000000000E+00 9.716352647880E-03 -5.038381005922E-02 0.000000000000E+00 7.023083012168E-04 3.675309433442E-01 0.000000000000E+00 -3.266289687193E+01 5.735913193717E+01 0.000000000000E+00 -8.600387961906E-02 -1.023274276156E-03 0.000000000000E+00 2.033155945434E+01 2.804439234917E+03
 0.000000000000E+00 0.000000000000E+00 0.000000000000E+00 0.000000000000E+00 0.000000000000E+00 0.000000000000E+00 0.000000000000E+00 0.000000000000E+00 0.000000000000E+00 0.000000000000E+00 0.000000000000E+00 0.000000000000E+00 0.000000000000E+00 0.000000000000E+00 0.000000000000E+00 0.000000000000E+00 0.000000000000E+00 0.000000000000E+00 0.000000000000E+00 0.000000000000E+00 0.000000000000E+00 0.000000000000E+00 0.000000000000E+00 0.000000000000E+00 0.000000000000E+00 0.000000000000E+00 0.000000000000E+00 0.000000000000E+00 0.000000000000E+00 0.000000000000E+00 0.000000000000E+00 0.000000000000E+00 0.000000000000E+00 0.000000000000E+00 0.000000000000E+00 0.000000000000E+00 0.000000000000E+00 0.000000000000E+00 0.000000000000E+00
 -3.888432875835E-02 1.433573204609E-01 0.000000000000E+00 -1.855438063566E+01 -3.144494921720E+01 0.000000000000E+00 3.846284172685E-02 -1.934222502200E-01 0.000000000000E+00 -2.298353791261E-01 -4.252328996166E-01 0.000000000000E+00 2.622127657169E-01 1.684758408944E-01 0.000000000000E+00 7.823317771356E-02 -8.635454011052E-02 0.000000000000E+00 -2.137086080306E-01 3.799795537117E-01 0.000000000000E+00 3.753666851498E-01 1.296159689429E+00 0.000000000000E+00 1.356724919969E-01 -2.484450381098E-02 0.000000000000E+00 -4.618062770103E-01 1.035046688910E+00 0.000000000000E+00 3.967525335338E+01 -6.927512325833E+01 0.000000000000E+00 -2.300399249614E+01 3.998876896252E+01 0.000000000000E+00 3.974401850088E+01 6.713892092034E+01 0.000000000000E+00 2.772724424573E+03
 -1.595386816826E-01 5.602790128200E-02 0.000000000000E+00 3.368921626451E+01 5.641548309524E+01 0.000000000000E+00 7.419386664176E-02 -9.523516119351E-02 0.000000000000E+00 -1.210996316288E-01 -3.429032749489E-01 0.000000000000E+00 1.427374738718E-01 -6.422533619721E-02 0.000000000000E+00 3.068207823111E-02 -1.509572754629E-01 0.000000000000E+00 -1.530415151855E-01 1.543682667652E-01 0.000000000000E+00 3.297615295160E-01 8.518087494100E-01 0.000000000000E+00 2.799375607572E-02 8.322544265094E-02 0.000000000000E+00 -2.205754780746E-01 7.717373539898E-01 0.000000000000E+00 4.255644577406E-02 -4.070694025554E-02 0.000000000000E+00 -4.252163825559E+01 7.390230225188E+01 0.000000000000E+00 -1.515024207359E-01 -6.159474886106E-02 0.000000000000E+00 -3.854540461460E+01 2.757287095586E+03
 0.000000000000E+00 0.000000000000E+00 0.000000000000E+00 0.000000000000E+00 0.000000000000E+00 0.000000000000E+00 0.000000000000E+00 0.000000000000E+00 0.000000000000E+00 0.000000000000E+00 0.000000000000E+00 0.000000000000E+00 0.000000000000E+00 0.000000000000E+00 0.000000000000E+00 0.000000000000E+00 0.000000000000E+00 0.000000000000E+00 0.000000000000E+00 0.000000000000E+00 0.000000000000E+00 0.000000000000E+00 0.000000000000E+00 0.000000000000E+00 0.000000000000E+00 0.000000000000E+00 0.000000000000E+00 0.000000000000E+00 0.000000000000E+00 0.000000000000E+00 0.000000000000E+00 0.000000000000E+00 0.000000000000E+00 0.000000000000E+00 0.000000000000E+00 0.000000000000E+00 0.000000000000E+00 0.000000000000E+00 0.000000000000E+00 0.000000000000E+00 0.000000000000E+00 0.000000000000E+00
 3.059959213123E-02 -1.988190168518E-02 0.000000000000E+00 5.728886715929E-03 -1.261823868348E-01 0.000000000000E+00 1.280655011875E-02 -8.138540768369E-03 0.000000000000E+00 3.886633742243E-02 2.042339777775E-02 0.000000000000E+00 8.945581458634E-03 -2.783731648368E-03 0.000000000000E+00 -2.946578966994E-02 5.536370091981E-02 0.000000000000E+00 -2.107436931095E-02 2.195823055158E-02 0.000000000000E+00 -4.782532693181E-02 -4.460735204258E-02 0.000000000000E+00 6.502977646924E-03 -1.414063429293E-02 0.000000000000E+00 -1.500567839243E-02 1.180827240044E-01 0.000000000000E+00 -1.237235162454E+03 4.323423646912E+02 0.000000000000E+00 -5.071666657272E+02 -1.383084101116E+01 0.000000000000E+00 -3.128650658584E-02 4.294354950503E-02 0.000000000000E+00 6.394099689818E-02 7.453566790106E-02 0.000000000000E+00 2.842382201775E+03
 -8.251967462563E-03 5.133057438749E-02 0.000000000000E+00 1.326379878313E-01 6.822101696597E-02 0.000000000000E+00 2.547630958266E-02 -8.096043781309E-03 0.000000000000E+00 -3.887945312311E-02 -9.131480357725E-02 0.000000000000E+00 -9.785445617397E-03 6.245813167522E-02 0.000000000000E+00 -2.400554833722E-02 -1.311605953338E-01 0.000000000000E+00 -1.045577007121E-02 1.712800493207E-02 0.000000000000E+00 5.638388941033E-02 1.350550934869E-02 0.000000000000E+00 2.009849675036E-02 -5.201537111512E-02 0.000000000000E+00 -6.839820987252E-02 -8.361672000037E-02 0.000000000000E+00 4.344974542602E+02 -7.288453120692E+02 0.000000000000E+00 -2.383475225623E+01 -1.541597318021E+03 0.000000000000E+00 -6.546755665411E-02 -9.904257285242E-02 0.000000000000E+00 3.966720024440E-02 -5.325469442898E-02 0.000000000000E+00 2.970208347894E+01 2.893449328179E+03
 0.000000000000E+00 0.000000000000E+00 0.000000000000E+00 0.000000000000E+00 0.000000000000E+00 0.000000000000E+00 0.000000000000E+00 0.000000000000E+00 0.000000000000E+00 0.000000000000E+00 0.000000000000E+00 0.000000000000E+00 0.000000000000E+00 0.000000000000E+00 0.000000000000E+00 0.000000000000E+00 0.000000000000E+00 0.000000000000E+00 0.000000000000E+00 0.000000000000E+00 0.000000000000E+00 0.000000000000E+00 0.000000000000E+00 0.000000000000E+00 0.000000000000E+00 0.000000000000E+00 0.000000000000E+00 0.000000000000E+00 0.000000000000E+00 0.000000000000E+00 0.000000000000E+00 0.000000000000E+00 0.000000000000E+00 0.000000000000E+00 0.000000000000E+00 0.000000000000E+00 0.000000000000E+00 0.000000000000E+00 0.000000000000E+00 0.000000000000E+00 0.000000000000E+00 0.000000000000E+00 0.000000000000E+00 0.000000000000E+00 0.000000000000E+00
 -3.980346457670E-03 -5.703763058437E-02 0.000000000000E+00 -1.600539359941E-01 -4.420386015349E-01 0.000000000000E+00 -7.716964612949E-02 3.407125874350E-03 0.000000000000E+00 -6.235865916977E-02 2.187360128281E-01 0.000000000000E+00 3.363611658310E-02 1.135646434671E-02 0.000000000000E+00 -1.965257692385E+01 3.452087685581E+01 0.000000000000E+00 2.866268224793E-02 3.382355815934E-02 0.000000000000E+00 -6.967067206232E-02 -1.619240027702E-01 0.000000000000E+00 3.467488378241E-03 -2.799040267588E-02 0.000000000000E+00 -1.715433980147E-02 1.529467604616E-01 0.000000000000E+00 -1.219205900313E+03 -4.269200362638E+02 0.000000000000E+00 6.150990376415E-02 3.888467187420E-03 0.000000000000E+00 -1.178247529737E+03 4.211140383146E+02 0.000000000000E+00 -4.730028142577E+02 -5.491763251144E+00 0.000000000000E+00 -1.970175156717E+01 -3.416386789706E+01 0.000000000000E+00 2.755434633197E+03
 1.698014405062E-01 1.048085133340E-03 0.000000000000E+00 -8.255197837580E-01 3.417310824074E-01 0.000000000000E+00 -4.422969639683E-02 1.377031226133E-03 0.000000000000E+00 -7.543342078765E-02 2.246727385408E-02 0.000000000000E+00 -5.511136342363E-02 4.934033041450E-02 0.000000000000E+00 -3.311654656240E+01 5.809195993554E+01 0.000000000000E+00 1.357040095732E-01 -4.131912101461E-02 0.000000000000E+00 6.604828926835E-02 -4.069722396596E-01 0.000000000000E+00 2.030662909894E-02 1.247132708938E-02 0.000000000000E+00 9.357525097318E-02 -6.185685611321E-01 0.000000000000E+00 -4.303579007235E+02 -7.167420066389E+02 0.000000000000E+00 1.575562463929E-01 3.334383619620E-02 0.000000000000E+00 4.224539957849E+02 -7.112351617683E+02 0.000000000000E+00 3.634980032935E+00 -1.497130055081E+03 0.000000000000E+00 3.418856068459E+01 5.972877537396E+01 0.000000000000E+00 4.462800607345E+00 2.807323434867E+03
 0.000000000000E+00 0.000000000000E+00 0.000000000000E+00 0.000000000000E+00 0.000000000000E+00 0.000000000000E+00 0.000000000000E+00 0.000000000000E+00 0.000000000000E+00 0.000000000000E+00 0.000000000000E+00 0.000000000000E+00 0.000000000000E+00 0.000000000000E+00 0.000000000000E+00 0.000000000000E+00 0.000000000000E+00 0.000000000000E+00 0.000000000000E+00 0.000000000000E+00 0.000000000000E+00 0.000000000000E+00 0.000000000000E+00 0.000000000000E+00 0.000000000000E+00 0.000000000000E+00 0.000000000000E+00 0.000000000000E+00 0.000000000000E+00 0.000000000000E+00 0.000000000000E+00 0.000000000000E+00 0.000000000000E+00 0.000000000000E+00 0.000000000000E+00 0.000000000000E+00 0.000000000000E+00 0.000000000000E+00 0.000000000000E+00 0.000000000000E+00 0.000000000000E+00 0.000000000000E+00 0.000000000000E+00 0.000000000000E+00 0.000000000000E+00 0.000000000000E+00 0.000000000000E+00 0.000000000000E+00
 1.994894264834E-03 -1.431765391110E-02 0.000000000000E+00 7.351138954693E-02 -5.729705063697E-02 0.000000000000E+00 1.595513218482E-02 2.841583973813E-02 0.000000000000E+00 1.091051367191E-01 1.118275307693E-01 0.000000000000E+00 -1.179565530157E-01 1.234565788190E-01 0.000000000000E+00 -4.053247968013E-02 7.309689531037E-02 0.000000000000E+00 1.155421554139E-02 -9.494525008484E-03 0.000000000000E+00 -2.057050382175E-01 -9.949883401853E-02 0.000000000000E+00 7.918122592165E-04 -1.175602818284E-01 0.000000000000E+00 3.127724384803E-02 -1.969026437893E-01 0.000000000000E+00 7.940396134370E-02 8.316632621157E-03 0.000000000000E+00 -1.502276149148E+03 -5.305965054965E+02 0.000000000000E+00 7.894935357856E-02 6.393161654885E-02 0.000000000000E+00 -1.279889331356E+03 4.337953730846E+02 0.000000000000E+00 4.910421750173E+01 -1.104554241995E+00 0.000000000000E+00 3.909937078912E+01 -3.683268612551E-03 0.000000000000E+00 3.072484296830E+03
 1.443213094279E-02 -3.572994449843E-02 0.000000000000E+00 -3.490178160526E-02 -7.229374765995E-02 0.000000000000E+00 6.192074702627E-03 2.507758166252E-02 0.000000000000E+00 9.187035182584E-02 1.081157053266E-01 0.000000000000E+00 -8.528984487832E-02 7.506678253869E-02 0.000000000000E+00 1.042363978736E-02 8.828402204729E-02 0.000000000000E+00 9.303192586785E-03 -3.040831247778E-02 0.000000000000E+00 -1.267916419925E-01 -1.539296848256E-01 0.000000000000E+00 -1.277757732638E-04 -5.219514716937E-02 0.000000000000E+00 6.187100640073E-02 -1.568119607547E-01 0.000000000000E+00 -4.956391672613E-03 -5.148138416785E-02 0.000000000000E+00 -5.402813613154E+02 -8.695444205559E+02 0.000000000000E+00 1.622658394017E-02 5.309758986550E-02 0.000000000000E+00 4.186422680167E+02 -7.235246527916E+02 0.000000000000E+00 -8.573426218299E+01 1.842524204915E+00 0.000000000000E+00 7.218428624793E+01 2.086305283114E-02 0.000000000000E+00 9.233633418515E+01 2.540564369425E+03
 0.000000000000E+00 0.000000000000E+00 0.000000000000E+00 0.000000000000E+00 0.000000000000E+00 0.000000000000E+00 0.000000000000E+00 0.000000000000E+00 0.000000000000E+00 0.000000000000E+00 0.000000000000E+00 0.000000000000E+00 0.000000000000E+00 0.000000000000E+00 0.000000000000E+00 0.000000000000E+00 0.000000000000E+00 0.000000000000E+00 0.000000000000E+00 0.000000000000E+00 0.000000000000E+00 0.000000000000E+00 0.000000000000E+00 0.000000000000E+00 0.000000000000E+00 0.000000000000E+00 0.000000000000E+00 0.000000000000E+00 0.000000000000E+00 0.000000000000E+00 0.000000000000E+00 0.000000000000E+00 0.000000000000E+00 0.000000000000E+00 0.000000000000E+00 0.000000000000E+00 0.000000000000E+00 0.000000000000E+00 0.000000000000E+00 0.000000000000E+00 0.000000000000E+00 0.000000000000E+00 0.000000000000E+00 0.000000000000E+00 0.000000000000E+00 0.000000000000E+00 0.000000000000E+00 0.000000000000E+00 0.000000000000E+00 0.000000000000E+00 0.000000000000E+00
 6.774507676352E-03 -1.851444918280E-01 0.000000000000E+00 -1.235773629831E+03 4.410071175610E+02 0.000000000000E+00 -5.466105325144E-02 5.873837687427E-02 0.000000000000E+00 -2.902737196335E-02 1.075171730445E-01 0.000000000000E+00 -2.964257477863E-01 4.299933510329E-02 0.000000000000E+00 3.943972737035E+01 -4.850813405054E-01 0.000000000000E+00 2.391253545058E-01 6.788243530153E-03 0.000000000000E+00 -2.022094191185E+01 3.522397335325E+01 0.000000000000E+00 -4.735541346705E-02 -1.060924873852E-01 0.000000000000E+00 2.920478476414E-01 -7.218793517510E-01 0.000000000000E+00 1.134495113132E-01 1.478472067188E-02 0.000000000000E+00 -9.792204983619E-02 4.493338185541E-02 0.000000000000E+00 -6.051932802943E-01 1.352734831113E-02 0.000000000000E+00 -1.136658197376E+03 -3.908140021523E+02 0.000000000000E+00 5.660453270202E-02 -1.060653291849E-01 0.000000000000E+00 3.721195080004E+01 3.961301988547E-01 0.000000000000E+00 -1.764583615375E+01 -3.263056123119E+01 0.000000000000E+00 2.740966629179E+03
 3.749730617552E-01 -1.535638134216E-01 0.000000000000E+00 4.491983209001E+02 -7.335311282032E+02 0.000000000000E+00 -2.798563115453E-01 4.339475997176E-01 0.000000000000E+00 4.383022369962E-01 9.222055729918E-01 0.000000000000E+00 -2.342645239487E-01 -7.112115744537E-01 0.000000000000E+00 6.680687557257E+01 -5.947544933796E-01 0.000000000000E+00 5.497867659301E-01 -8.889251502157E-01 0.000000000000E+00 -3.433819193478E+01 5.627648353713E+01 0.000000000000E+00 -3.519672145119E-01 2.905783139228E-01 0.000000000000E+00 1.107863492505E+00 -2.375143536856E+00 0.000000000000E+00 -1.653856527605E-02 1.274255201094E-01 0.000000000000E+00 -1.531747708763E-01 1.227921178725E-02 0.000000000000E+00 -1.764900256119E-01 6.541745779360E-01 0.000000000000E+00 -3.892796993735E+02 -6.711765314242E+02 0.000000000000E+00 2.053861020582E-01 -2.480633633622E-02 0.000000000000E+00 -6.459608061329E+01 -6.742557153748E-01 0.000000000000E+00 3.132325162696E+01 5.763052747155E+01 0.000000000000E+00 -6.219663460190E+00 2.813523017924E+03
 0.000000000000E+00 0.000000000000E+00 0.000000000000E+00 0.000000000000E+00 0.000000000000E+00 0.000000000000E+00 0.000000000000E+00 0.000000000000E+00 0.000000000000E+00 0.000000000000E+00 0.000000000000E+00 0.000000000000E+00 0.000000000000E+00 0.000000000000E+00 0.000000000000E+00 0.000000000000E+00 0.000000000000E+00 0.000000000000E+00 0.000000000000E+00 0.000000000000E+00 0.000000000000E+00 0.000000000000E+00 0.000000000000E+00 0.000000000000E+00 0.000000000000E+00 0.000000000000E+00 0.000000000000E+00 0.000000000000E+00 0.000000000000E+00 0.000000000000E+00 0.000000000000E+00 0.000000000000E+00 0.000000000000E+00 0.000000000000E+00 0.000000000000E+00 0.000000000000E+00 0.000000000000E+00 0.000000000000E+00 0.000000000000E+00 0.000000000000E+00 0.000000000000E+00 0.000000000000E+00 0.000000000000E+00 0.000000000000E+00 0.000000000000E+00 0.000000000000E+00 0.000000000000E+00 0.000000000000E+00 0.000000000000E+00 0.000000000000E+00 0.000000000000E+00 0.000000000000E+00 0.000000000000E+00 0.000000000000E+00