#BIOSYM hessian 1
@Type: Hessian Update
@Units
 distance: 	A
 energy: 	Kcal/Mol
#header
@natom 67

#label
C1      C2      C3      C4      C5      C6      C7      C8      C9      C10     C11     C12     C13     C14     C15     C16     C17     C18     C19     C20     C21     C22     C23     H24     C25     C26     C27     C28     C29     C30     C31     C32     C33     C34     C35     C36     C37     C38     C39     C40     C41     C42     C43     C44     C45     C46     C47     C48     C49     H50     H51     H52     H53     H54     O55     H56     H57     H58     H59     H60     H61     H62     H63     H64     H65     H66     H67

#element
C  C  C  C  C  C  C  C  C  C  C  C  C  C  C  C  C  C  C  C  C  C  C  H  C  C  C  C  C  C  C  C  C  C  C  C  C  C  C  C  C  C  C  C  C  C  C  C  C  H  H  H  H  H  O  H  H  H  H  H  H  H  H  H  H  H  H 

#matrix
201
 2.781035947017E+03
 -1.653198178273E+01 2.806312756192E+03
 0.000000000000E+00 0.000000000000E+00 0.000000000000E+00
 3.915914861922E+01 6.664109386501E+01 0.000000000000E+00 2.798994002315E+03
 -1.691658053690E-01 -3.485103333988E-01 0.000000000000E+00 -2.577588107185E+01 2.767594550187E+03
 0.000000000000E+00 0.000000000000E+00 0.000000000000E+00 0.000000000000E+00 0.000000000000E+00 0.000000000000E+00
 -1.899759420127E+01 3.432011606002E+01 0.000000000000E+00 8.096506248430E-02 3.582409004523E-02 0.000000000000E+00 2.798518375885E+03
 -3.310336267208E+01 5.901624344295E+01 0.000000000000E+00 -5.066123202543E-03 -2.952799439366E-02 0.000000000000E+00 2.738260221462E+01 2.754752088534E+03
 0.000000000000E+00 0.000000000000E+00 0.000000000000E+00 0.000000000000E+00 0.000000000000E+00 0.000000000000E+00 0.000000000000E+00 0.000000000000E+00 0.000000000000E+00
 3.734622174831E+01 -6.669944803189E+01 0.000000000000E+00 -1.946485628150E+01 3.482422223272E+01 0.000000000000E+00 3.980250243340E+01 6.886394657897E+01 0.000000000000E+00 2.799805869362E+03
 -2.305785270245E-01 2.293129577249E-01 0.000000000000E+00 -3.295420402158E+01 5.909154296010E+01 0.000000000000E+00 -7.759219241914E-02 -3.074010332744E-01 0.000000000000E+00 -7.015577051261E-01 2.803204735516E+03
 0.000000000000E+00 0.000000000000E+00 0.000000000000E+00 0.000000000000E+00 0.000000000000E+00 0.000000000000E+00 0.000000000000E+00 0.000000000000E+00 0.000000000000E+00 0.000000000000E+00 0.000000000000E+00 0.000000000000E+00
 1.736111789904E-03 -1.764606374620E-02 0.000000000000E+00 -6.507198838358E-03 -3.975426498018E-03 0.000000000000E+00 5.112628077891E+01 -8.319767909396E+01 0.000000000000E+00 -2.153403932081E+01 3.730300226664E+01 0.000000000000E+00 2.605916582652E+03
 5.580231526693E-02 2.817656920397E-03 0.000000000000E+00 1.926334826733E-02 1.468248363598E-02 0.000000000000E+00 -2.962912195965E-01 3.350499576066E-01 0.000000000000E+00 -3.528088959226E+01 6.124506067317E+01 0.000000000000E+00 -1.739432184563E+02 3.053090921116E+03
 0.000000000000E+00 0.000000000000E+00 0.000000000000E+00 0.000000000000E+00 0.000000000000E+00 0.000000000000E+00 0.000000000000E+00 0.000000000000E+00 0.000000000000E+00 0.000000000000E+00 0.000000000000E+00 0.000000000000E+00 0.000000000000E+00 0.000000000000E+00 0.000000000000E+00
 -1.220012320764E+03 4.418757678068E+02 0.000000000000E+00 -4.639838547110E+02 -6.071659110620E+00 0.000000000000E+00 1.201544818213E-03 8.924131398967E-03 0.000000000000E+00 2.956086951596E-02 -6.276496322280E-03 0.000000000000E+00 4.351917670342E-03 -1.432758450630E-02 0.000000000000E+00 2.818890061383E+03
 4.360383081082E+02 -7.337208533409E+02 0.000000000000E+00 -4.000277855111E+00 -1.430648934452E+03 0.000000000000E+00 -5.478039014676E-02 -1.411207633581E-03 0.000000000000E+00 -6.386824798541E-03 5.774680773746E-02 0.000000000000E+00 4.588559160653E-04 -1.531771361196E-02 0.000000000000E+00 2.859952386024E+00 2.772861808232E+03
 0.000000000000E+00 0.000000000000E+00 0.000000000000E+00 0.000000000000E+00 0.000000000000E+00 0.000000000000E+00 0.000000000000E+00 0.000000000000E+00 0.000000000000E+00 0.000000000000E+00 0.000000000000E+00 0.000000000000E+00 0.000000000000E+00 0.000000000000E+00 0.000000000000E+00 0.000000000000E+00 0.000000000000E+00 0.000000000000E+00
 -1.200205404242E+03 -4.134222793201E+02 0.000000000000E+00 7.417645962201E-02 -2.380995187099E-02 0.000000000000E+00 -1.238787644738E+03 4.403273237214E+02 0.000000000000E+00 -4.691739718759E+02 -3.005521780346E+00 0.000000000000E+00 2.268849390633E-04 -4.980571679633E-02 0.000000000000E+00 -1.924571048979E+01 -3.254898217825E+01 0.000000000000E+00 2.793636553282E+03
 -4.116880554050E+02 -6.949373450948E+02 0.000000000000E+00 -6.819324862373E-02 1.679960021334E-02 0.000000000000E+00 4.486439862631E+02 -7.317517672506E+02 0.000000000000E+00 -5.854119540213E+00 -1.457994072399E+03 0.000000000000E+00 -1.339045057691E-02 9.121381591675E-02 0.000000000000E+00 3.428282574409E+01 5.810994805682E+01 0.000000000000E+00 -2.500648844552E+01 2.765880884876E+03
 0.000000000000E+00 0.000000000000E+00 0.000000000000E+00 0.000000000000E+00 0.000000000000E+00 0.000000000000E+00 0.000000000000E+00 0.000000000000E+00 0.000000000000E+00 0.000000000000E+00 0.000000000000E+00 0.000000000000E+00 0.000000000000E+00 0.000000000000E+00 0.000000000000E+00 0.000000000000E+00 0.000000000000E+00 0.000000000000E+00 0.000000000000E+00 0.000000000000E+00 0.000000000000E+00
 1.421075753596E-01 -7.034246050931E-03 0.000000000000E+00 -1.223485211970E+03 -4.204247442340E+02 0.000000000000E+00 -4.744567048718E-03 -3.977418998680E-02 0.000000000000E+00 -1.217306792750E+03 4.364239111973E+02 0.000000000000E+00 6.480775022570E-03 1.092619513410E-02 0.000000000000E+00 3.724270849344E+01 -2.561420608619E-01 0.000000000000E+00 3.976826046743E+01 -5.097642192537E-02 0.000000000000E+00 2.803368389839E+03
 2.022999899145E-02 -2.693964395286E-02 0.000000000000E+00 -4.233282835535E+02 -7.060339104995E+02 0.000000000000E+00 -4.427360901533E-02 4.346369969453E-02 0.000000000000E+00 4.393058907912E+02 -7.323812221879E+02 0.000000000000E+00 3.518867219272E-04 -6.255494599594E-03 0.000000000000E+00 -6.677344636401E+01 3.474476234914E-01 0.000000000000E+00 6.762921875170E+01 -2.005925526628E-01 0.000000000000E+00 1.350542612340E+00 2.797402775796E+03
 0.000000000000E+00 0.000000000000E+00 0.000000000000E+00 0.000000000000E+00 0.000000000000E+00 0.000000000000E+00 0.000000000000E+00 0.000000000000E+00 0.000000000000E+00 0.000000000000E+00 0.000000000000E+00 0.000000000000E+00 0.000000000000E+00 0.000000000000E+00 0.000000000000E+00 0.000000000000E+00 0.000000000000E+00 0.000000000000E+00 0.000000000000E+00 0.000000000000E+00 0.000000000000E+00 0.000000000000E+00 0.000000000000E+00 0.000000000000E+00
 3.867285777553E-02 2.331115602087E-02 0.000000000000E+00 1.411056454801E-02 4.982633978531E-03 0.000000000000E+00 -1.234189786242E+03 -4.460363434353E+02 0.000000000000E+00 1.304368274391E-02 1.380916506956E-02 0.000000000000E+00 -5.675547852943E+02 -3.290404802543E+00 0.000000000000E+00 -6.942965111170E-03 -1.037421896538E-02 0.000000000000E+00 -2.152487690225E+01 -3.720806190485E+01 0.000000000000E+00 2.860539538821E-03 -9.173712573407E-03 0.000000000000E+00 2.599891991507E+03
 -1.654019088306E-02 4.216011481664E-02 0.000000000000E+00 1.291533953493E-02 8.586883521591E-03 0.000000000000E+00 -4.610926092777E+02 -7.740765335837E+02 0.000000000000E+00 -9.904296711560E-04 6.230256870627E-02 0.000000000000E+00 -1.358827251468E+01 -1.818579903231E+03 0.000000000000E+00 1.502792416679E-03 4.237605323198E-03 0.000000000000E+00 3.505151118932E+01 6.060929763726E+01 0.000000000000E+00 -6.446811510525E-03 -2.002270793237E-02 0.000000000000E+00 1.873844225923E+02 3.032453626194E+03
 0.000000000000E+00 0.000000000000E+00 0.000000000000E+00 0.000000000000E+00 0.000000000000E+00 0.000000000000E+00 0.000000000000E+00 0.000000000000E+00 0.000000000000E+00 0.000000000000E+00 0.000000000000E+00 0.000000000000E+00 0.000000000000E+00 0.000000000000E+00 0.000000000000E+00 0.000000000000E+00 0.000000000000E+00 0.000000000000E+00 0.000000000000E+00 0.000000000000E+00 0.000000000000E+00 0.000000000000E+00 0.000000000000E+00 0.000000000000E+00 0.000000000000E+00 0.000000000000E+00 0.000000000000E+00
 -3.218709671325E-02 2.233580455507E-02 0.000000000000E+00 1.643011168030E-02 -2.588025860765E-03 0.000000000000E+00 -3.963006763140E-03 -1.599888371710E-03 0.000000000000E+00 -1.230067664326E+03 -4.355412779766E+02 0.000000000000E+00 -1.264637629429E+03 4.626037497600E+02 0.000000000000E+00 -2.731722945905E-03 1.174706470169E-02 0.000000000000E+00 3.939238697561E+01 -1.911874752169E-01 0.000000000000E+00 -2.023543196728E+01 -3.426251930317E+01 0.000000000000E+00 5.166037886231E+01 -2.087148054779E-01 0.000000000000E+00 2.852557089038E+03
 -1.538492085564E-02 -1.833195372076E-02 0.000000000000E+00 -2.681761710561E-02 -5.666004570163E-03 0.000000000000E+00 4.358015926307E-02 7.156377837995E-02 0.000000000000E+00 -4.340182550972E+02 -7.315857718972E+02 0.000000000000E+00 4.524937178103E+02 -7.849066720688E+02 0.000000000000E+00 7.522214777521E-03 1.320862044274E-03 0.000000000000E+00 -6.824558960624E+01 1.955204207906E-01 0.000000000000E+00 3.500698215127E+01 5.942832345600E+01 0.000000000000E+00 8.480216800451E+01 -4.324594524388E-01 0.000000000000E+00 -3.871962929253E+01 2.884629351001E+03
 0.000000000000E+00 0.000000000000E+00 0.000000000000E+00 0.000000000000E+00 0.000000000000E+00 0.000000000000E+00 0.000000000000E+00 0.000000000000E+00 0.000000000000E+00 0.000000000000E+00 0.000000000000E+00 0.000000000000E+00 0.000000000000E+00 0.000000000000E+00 0.000000000000E+00 0.000000000000E+00 0.000000000000E+00 0.000000000000E+00 0.000000000000E+00 0.000000000000E+00 0.000000000000E+00 0.000000000000E+00 0.000000000000E+00 0.000000000000E+00 0.000000000000E+00 0.000000000000E+00 0.000000000000E+00 0.000000000000E+00 0.000000000000E+00 0.000000000000E+00
 -1.836235790123E-02 -4.033444691551E-03 0.000000000000E+00 -3.229269045466E-03 1.469121553030E-03 0.000000000000E+00 7.266360599271E-03 3.274192666574E-03 0.000000000000E+00 -3.898784562709E-03 2.606570939008E-03 0.000000000000E+00 -8.987127813766E-04 4.115824532732E-03 0.000000000000E+00 3.237433252736E-03 -9.798566038637E-03 0.000000000000E+00 1.476037578789E-02 -5.692743995480E-03 0.000000000000E+00 1.072091783462E-03 -3.744029673305E-04 0.000000000000E+00 4.154075236164E-03 3.079871110077E-04 0.000000000000E+00 2.109864175639E-03 -9.443281471096E-04 0.000000000000E+00 2.806126512112E+03
 2.172343162731E-02 2.154822036386E-02 0.000000000000E+00 2.851890672261E-02 -1.101530654525E-02 0.000000000000E+00 -4.267494011513E-02 2.046276035911E-02 0.000000000000E+00 8.518571827741E-03 9.601754360652E-03 0.000000000000E+00 3.473632484246E-03 -3.690054538014E-03 0.000000000000E+00 -1.121634871244E-02 -2.662392192566E-02 0.000000000000E+00 -1.229728800116E-02 -8.991335000606E-03 0.000000000000E+00 -1.248709648290E-02 -3.538004522992E-03 0.000000000000E+00 -4.518136008182E-03 -1.416431244151E-02 0.000000000000E+00 -6.014412097689E-03 5.489020681607E-03 0.000000000000E+00 2.408712451435E+00 2.798278031731E+03
 0.000000000000E+00 0.000000000000E+00 0.000000000000E+00 0.000000000000E+00 0.000000000000E+00 0.000000000000E+00 0.000000000000E+00 0.000000000000E+00 0.000000000000E+00 0.000000000000E+00 0.000000000000E+00 0.000000000000E+00 0.000000000000E+00 0.000000000000E+00 0.000000000000E+00 0.000000000000E+00 0.000000000000E+00 0.000000000000E+00 0.000000000000E+00 0.000000000000E+00 0.000000000000E+00 0.000000000000E+00 0.000000000000E+00 0.000000000000E+00 0.000000000000E+00 0.000000000000E+00 0.000000000000E+00 0.000000000000E+00 0.000000000000E+00 0.000000000000E+00 0.000000000000E+00 0.000000000000E+00 0.000000000000E+00
 2.379545372334E-05 1.182207554698E-02 0.000000000000E+00 -8.999133099995E-03 1.262539587941E-02 0.000000000000E+00 -3.375136680530E-02 6.981876578103E-03 0.000000000000E+00 -9.248415135193E-03 4.004514918849E-03 0.000000000000E+00 -1.809622759261E-03 -1.975471528491E-03 0.000000000000E+00 1.027161793196E-02 1.026382737904E-02 0.000000000000E+00 1.157905805702E-02 -4.234550738052E-03 0.000000000000E+00 1.354590192449E-02 -4.904069433917E-03 0.000000000000E+00 -4.310288178493E-03 -3.236145406938E-03 0.000000000000E+00 4.745865166410E-03 2.126858649939E-03 0.000000000000E+00 4.129777346461E+01 7.137102103964E+01 0.000000000000E+00 2.791012510026E+03
 3.243760852902E-02 4.126512139147E-02 0.000000000000E+00 1.909404254369E-02 1.799432963326E-02 0.000000000000E+00 -9.765703355238E-02 2.371781621519E-02 0.000000000000E+00 -4.211659874865E-03 1.569774425223E-02 0.000000000000E+00 -6.869005543375E-05 -1.219178623262E-02 0.000000000000E+00 -1.797325390322E-03 -1.623490031574E-02 0.000000000000E+00 2.474252707522E-03 -8.261145695121E-03 0.000000000000E+00 5.280360343271E-03 -1.276494000415E-02 0.000000000000E+00 -1.425941076845E-02 -1.618127047949E-02 0.000000000000E+00 1.969279287469E-03 9.421133339395E-03 0.000000000000E+00 -9.585709773326E-01 -1.713794335420E+00 0.000000000000E+00 2.828585403771E+02 2.858135588781E+03
 0.000000000000E+00 0.000000000000E+00 0.000000000000E+00 0.000000000000E+00 0.000000000000E+00 0.000000000000E+00 0.000000000000E+00 0.000000000000E+00 0.000000000000E+00 0.000000000000E+00 0.000000000000E+00 0.000000000000E+00 0.000000000000E+00 0.000000000000E+00 0.000000000000E+00 0.000000000000E+00 0.000000000000E+00 0.000000000000E+00 0.000000000000E+00 0.000000000000E+00 0.000000000000E+00 0.000000000000E+00 0.000000000000E+00 0.000000000000E+00 0.000000000000E+00 0.000000000000E+00 0.000000000000E+00 0.000000000000E+00 0.000000000000E+00 0.000000000000E+00 0.000000000000E+00 0.000000000000E+00 0.000000000000E+00 0.000000000000E+00 0.000000000000E+00 0.000000000000E+00
 -2.013392411646E+01 -3.411861701853E+01 0.000000000000E+00 3.854170350022E+01 -2.340172009253E-01 0.000000000000E+00 -8.146961518620E-02 1.930436978481E-02 0.000000000000E+00 5.113086393321E-04 2.360845172972E-02 0.000000000000E+00 1.633523377479E-03 -3.412493330124E-03 0.000000000000E+00 -1.253970205227E+03 -4.361894694054E+02 0.000000000000E+00 2.214310802598E-02 -1.797678593147E-02 0.000000000000E+00 -1.523777389779E-02 -4.043374188421E-03 0.000000000000E+00 -7.383781432069E-03 -1.790469199102E-02 0.000000000000E+00 -3.222742607686E-03 5.273124275053E-03 0.000000000000E+00 -1.949328332134E+01 3.401069580904E+01 0.000000000000E+00 -5.027849864663E-03 -2.238964142184E-02 0.000000000000E+00 2.789852657022E+03
 3.572487004979E+01 6.060980747385E+01 0.000000000000E+00 -6.818770201599E+01 3.605562620465E-01 0.000000000000E+00 -1.679961102091E-01 4.565882704500E-02 0.000000000000E+00 1.353585552467E-02 1.521613518087E-02 0.000000000000E+00 6.600784089990E-03 -1.970347931081E-02 0.000000000000E+00 -4.394721842483E+02 -7.254410562273E+02 0.000000000000E+00 -3.303562479839E-02 -9.279559932493E-03 0.000000000000E+00 -6.900867666275E-04 -1.134038969916E-02 0.000000000000E+00 -2.333373663072E-02 -3.518395719657E-02 0.000000000000E+00 -1.074085977788E-02 1.969979753292E-02 0.000000000000E+00 -3.269270958411E+01 5.725856428441E+01 0.000000000000E+00 -3.340917180172E-02 -5.033110855493E-02 0.000000000000E+00 1.968448040915E+01 2.797106317065E+03
 0.000000000000E+00 0.000000000000E+00 0.000000000000E+00 0.000000000000E+00 0.000000000000E+00 0.000000000000E+00 0.000000000000E+00 0.000000000000E+00 0.000000000000E+00 0.000000000000E+00 0.000000000000E+00 0.000000000000E+00 0.000000000000E+00 0.000000000000E+00 0.000000000000E+00 0.000000000000E+00 0.000000000000E+00 0.000000000000E+00 0.000000000000E+00 0.000000000000E+00 0.000000000000E+00 0.000000000000E+00 0.000000000000E+00 0.000000000000E+00 0.000000000000E+00 0.000000000000E+00 0.000000000000E+00 0.000000000000E+00 0.000000000000E+00 0.000000000000E+00 0.000000000000E+00 0.000000000000E+00 0.000000000000E+00 0.000000000000E+00 0.000000000000E+00 0.000000000000E+00 0.000000000000E+00 0.000000000000E+00 0.000000000000E+00
 -2.028742003741E-03 1.943800136922E-03 0.000000000000E+00 -1.913746862839E+01 -3.178209298700E+01 0.000000000000E+00 4.964335714531E-03 -1.346240241900E-02 0.000000000000E+00 -1.214373961383E-02 -1.446001477026E-03 0.000000000000E+00 -1.977094975418E-03 -3.074686216248E-03 0.000000000000E+00 1.818893134542E-02 1.788777081660E-02 0.000000000000E+00 1.756342489400E-02 -2.363585345185E-03 0.000000000000E+00 1.920263650670E-02 -8.098534884865E-03 0.000000000000E+00 1.860093341407E-03 1.021505547354E-02 0.000000000000E+00 8.902568979168E-03 2.281644625182E-03 0.000000000000E+00 3.946032065034E+01 -6.907434763592E+01 0.000000000000E+00 -2.302954550789E+01 4.024671185645E+01 0.000000000000E+00 3.996084580752E+01 6.720433974956E+01 0.000000000000E+00 2.778333413130E+03
 -6.057516967458E-03 -2.967760596341E-05 0.000000000000E+00 3.389944826322E+01 5.645206907158E+01 0.000000000000E+00 -1.995822141070E-02 -4.711259312104E-03 0.000000000000E+00 -1.710034018349E-03 8.660827607591E-03 0.000000000000E+00 1.391220987989E-03 1.212795759029E-03 0.000000000000E+00 1.719876296476E-02 4.449066876872E-02 0.000000000000E+00 4.156496835807E-03 -3.061261975329E-03 0.000000000000E+00 -5.194570397791E-03 4.062216588827E-04 0.000000000000E+00 -1.555198507717E-03 -4.571009612316E-03 0.000000000000E+00 -4.818441540619E-03 -2.968563041644E-03 0.000000000000E+00 -7.357652192142E-02 5.850336531325E-02 0.000000000000E+00 -4.231893633255E+01 7.408703608232E+01 0.000000000000E+00 -1.813889624333E-02 -1.067586676206E-01 0.000000000000E+00 -3.071270422162E+01 2.755013595603E+03
 0.000000000000E+00 0.000000000000E+00 0.000000000000E+00 0.000000000000E+00 0.000000000000E+00 0.000000000000E+00 0.000000000000E+00 0.000000000000E+00 0.000000000000E+00 0.000000000000E+00 0.000000000000E+00 0.000000000000E+00 0.000000000000E+00 0.000000000000E+00 0.000000000000E+00 0.000000000000E+00 0.000000000000E+00 0.000000000000E+00 0.000000000000E+00 0.000000000000E+00 0.000000000000E+00 0.000000000000E+00 0.000000000000E+00 0.000000000000E+00 0.000000000000E+00 0.000000000000E+00 0.000000000000E+00 0.000000000000E+00 0.000000000000E+00 0.000000000000E+00 0.000000000000E+00 0.000000000000E+00 0.000000000000E+00 0.000000000000E+00 0.000000000000E+00 0.000000000000E+00 0.000000000000E+00 0.000000000000E+00 0.000000000000E+00 0.000000000000E+00 0.000000000000E+00 0.000000000000E+00
 -6.277859504856E-03 -9.907450698002E-03 0.000000000000E+00 2.160452591181E-03 -8.986075678978E-03 0.000000000000E+00 2.172639443640E-02 -2.271644483630E-05 0.000000000000E+00 2.016301687178E-03 -5.311721433255E-03 0.000000000000E+00 -3.303197506735E-03 2.815171421536E-03 0.000000000000E+00 -5.372768685782E-03 -6.322171450834E-03 0.000000000000E+00 -4.249866226293E-03 1.173468849832E-02 0.000000000000E+00 -5.831172049928E-03 7.445103002591E-03 0.000000000000E+00 -1.135805664815E-03 3.846534254350E-03 0.000000000000E+00 -5.426670404868E-04 -5.302539486274E-03 0.000000000000E+00 -1.233868627987E+03 4.336505785425E+02 0.000000000000E+00 -5.062624498257E+02 -1.592830635727E+01 0.000000000000E+00 3.333956432277E-03 2.590103837936E-02 0.000000000000E+00 3.643106153303E-02 2.509591332212E-03 0.000000000000E+00 2.847828574807E+03
 -8.649653771800E-03 -9.879196923735E-03 0.000000000000E+00 -1.532281683841E-02 -6.121951480380E-04 0.000000000000E+00 2.130717050089E-02 -1.258280370211E-02 0.000000000000E+00 -2.891765591056E-03 -5.218381589160E-03 0.000000000000E+00 5.237485688249E-04 1.816406352901E-03 0.000000000000E+00 4.615338531070E-03 1.924631555789E-02 0.000000000000E+00 3.076550129397E-03 8.674850928006E-04 0.000000000000E+00 7.235996421903E-03 1.508082164554E-03 0.000000000000E+00 5.316431473554E-03 6.532899646509E-03 0.000000000000E+00 1.438969429138E-03 -1.343985401465E-03 0.000000000000E+00 4.349767923593E+02 -7.304698830802E+02 0.000000000000E+00 -2.574251218971E+01 -1.533128112465E+03 0.000000000000E+00 1.674719693964E-02 -5.931808563845E-03 0.000000000000E+00 9.855831785612E-03 3.404800273249E-02 0.000000000000E+00 3.355908838806E+01 2.889178285492E+03
 0.000000000000E+00 0.000000000000E+00 0.000000000000E+00 0.000000000000E+00 0.000000000000E+00 0.000000000000E+00 0.000000000000E+00 0.000000000000E+00 0.000000000000E+00 0.000000000000E+00 0.000000000000E+00 0.000000000000E+00 0.000000000000E+00 0.000000000000E+00 0.000000000000E+00 0.000000000000E+00 0.000000000000E+00 0.000000000000E+00 0.000000000000E+00 0.000000000000E+00 0.000000000000E+00 0.000000000000E+00 0.000000000000E+00 0.000000000000E+00 0.000000000000E+00 0.000000000000E+00 0.000000000000E+00 0.000000000000E+00 0.000000000000E+00 0.000000000000E+00 0.000000000000E+00 0.000000000000E+00 0.000000000000E+00 0.000000000000E+00 0.000000000000E+00 0.000000000000E+00 0.000000000000E+00 0.000000000000E+00 0.000000000000E+00 0.000000000000E+00 0.000000000000E+00 0.000000000000E+00 0.000000000000E+00 0.000000000000E+00 0.000000000000E+00
 3.097059380908E-02 1.264945682318E-02 0.000000000000E+00 2.329335982423E-02 -2.437303413458E-02 0.000000000000E+00 -2.919159615609E-02 9.565250000390E-03 0.000000000000E+00 1.267808222955E-02 -2.114484573584E-03 0.000000000000E+00 4.531456725581E-03 -6.182383364207E-03 0.000000000000E+00 -1.975016571882E+01 3.492940188317E+01 0.000000000000E+00 -2.797408834546E-02 3.232246946809E-03 0.000000000000E+00 -8.670569758712E-03 -1.000063592661E-03 0.000000000000E+00 -5.294270291567E-03 -8.298511294618E-03 0.000000000000E+00 -7.758910231866E-03 4.916717503028E-03 0.000000000000E+00 -1.218537936371E+03 -4.254054163560E+02 0.000000000000E+00 3.411971880793E-02 -2.215639484864E-03 0.000000000000E+00 -1.180242775949E+03 4.251211541924E+02 0.000000000000E+00 -4.718192262546E+02 -7.213119811375E+00 0.000000000000E+00 -1.967228349284E+01 -3.396266386781E+01 0.000000000000E+00 2.755726278510E+03
 -1.089841707298E-02 -2.384674360328E-02 0.000000000000E+00 -5.416726595308E-02 5.681975453539E-02 0.000000000000E+00 5.179557436329E-02 -2.444510909365E-02 0.000000000000E+00 -1.605528093320E-02 -1.198138836800E-02 0.000000000000E+00 -4.989092735807E-03 8.467147158533E-04 0.000000000000E+00 -3.314289761217E+01 5.882899983563E+01 0.000000000000E+00 1.633343610976E-02 1.083301697719E-02 0.000000000000E+00 2.462296429548E-02 -5.764862234289E-03 0.000000000000E+00 6.376402550071E-03 2.040297760650E-02 0.000000000000E+00 1.187599717648E-02 -3.676595940918E-03 0.000000000000E+00 -4.283049755339E+02 -7.139458919337E+02 0.000000000000E+00 4.350102103261E-02 3.740915011063E-02 0.000000000000E+00 4.270405891830E+02 -7.181378012995E+02 0.000000000000E+00 6.866264698048E-01 -1.493921607819E+03 0.000000000000E+00 3.433491558566E+01 5.946693822732E+01 0.000000000000E+00 1.199575040593E+00 2.807745150981E+03
 0.000000000000E+00 0.000000000000E+00 0.000000000000E+00 0.000000000000E+00 0.000000000000E+00 0.000000000000E+00 0.000000000000E+00 0.000000000000E+00 0.000000000000E+00 0.000000000000E+00 0.000000000000E+00 0.000000000000E+00 0.000000000000E+00 0.000000000000E+00 0.000000000000E+00 0.000000000000E+00 0.000000000000E+00 0.000000000000E+00 0.000000000000E+00 0.000000000000E+00 0.000000000000E+00 0.000000000000E+00 0.000000000000E+00 0.000000000000E+00 0.000000000000E+00 0.000000000000E+00 0.000000000000E+00 0.000000000000E+00 0.000000000000E+00 0.000000000000E+00 0.000000000000E+00 0.000000000000E+00 0.000000000000E+00 0.000000000000E+00 0.000000000000E+00 0.000000000000E+00 0.000000000000E+00 0.000000000000E+00 0.000000000000E+00 0.000000000000E+00 0.000000000000E+00 0.000000000000E+00 0.000000000000E+00 0.000000000000E+00 0.000000000000E+00 0.000000000000E+00 0.000000000000E+00 0.000000000000E+00
 -2.004228653567E-02 -3.037500879740E-02 0.000000000000E+00 -3.709584174194E-04 -1.560306244312E-02 0.000000000000E+00 7.843578721831E-02 -1.573009139386E-02 0.000000000000E+00 1.099676532090E-02 -9.267985453530E-03 0.000000000000E+00 2.095832446667E-03 9.360577395765E-03 0.000000000000E+00 -5.662175553639E-03 -1.467751957458E-03 0.000000000000E+00 -1.055369870032E-02 4.918287508807E-03 0.000000000000E+00 -1.704697525905E-02 1.025025155582E-02 0.000000000000E+00 1.098833863145E-02 8.902300466760E-03 0.000000000000E+00 -5.947520799019E-03 -7.322853800623E-03 0.000000000000E+00 3.402032060105E-02 2.467959940162E-02 0.000000000000E+00 -1.513923626513E+03 -5.330404037622E+02 0.000000000000E+00 1.103103238287E-02 4.618763771764E-02 0.000000000000E+00 -1.271926795403E+03 4.310885532953E+02 0.000000000000E+00 4.905864706317E+01 -1.197950078898E+00 0.000000000000E+00 3.890141868091E+01 -4.226510301224E-02 0.000000000000E+00 3.077507414643E+03
 3.873031844294E-03 6.139398876915E-05 0.000000000000E+00 7.920234820999E-03 -6.101445694832E-03 0.000000000000E+00 5.973314648732E-03 5.787575691285E-03 0.000000000000E+00 3.856633786317E-03 2.396648298465E-03 0.000000000000E+00 1.846823852966E-03 9.685037389873E-04 0.000000000000E+00 -4.247804913222E-03 -1.109701384121E-02 0.000000000000E+00 -3.438536076365E-03 -5.583905542484E-03 0.000000000000E+00 -7.036006272165E-03 -1.588575234943E-03 0.000000000000E+00 3.050123733754E-03 -3.729466229812E-03 0.000000000000E+00 -1.781790548981E-03 1.631162820012E-03 0.000000000000E+00 1.553518404084E-02 2.389912198316E-02 0.000000000000E+00 -5.440276554794E+02 -8.732913681573E+02 0.000000000000E+00 -5.459907293325E-03 1.268825164460E-02 0.000000000000E+00 4.163240031240E+02 -7.221325864757E+02 0.000000000000E+00 -8.586637123874E+01 1.999694710877E+00 0.000000000000E+00 7.159135260349E+01 -8.642283485253E-02 0.000000000000E+00 9.852689983391E+01 2.543473090938E+03
 0.000000000000E+00 0.000000000000E+00 0.000000000000E+00 0.000000000000E+00 0.000000000000E+00 0.000000000000E+00 0.000000000000E+00 0.000000000000E+00 0.000000000000E+00 0.000000000000E+00 0.000000000000E+00 0.000000000000E+00 0.000000000000E+00 0.000000000000E+00 0.000000000000E+00 0.000000000000E+00 0.000000000000E+00 0.000000000000E+00 0.000000000000E+00 0.000000000000E+00 0.000000000000E+00 0.000000000000E+00 0.000000000000E+00 0.000000000000E+00 0.000000000000E+00 0.000000000000E+00 0.000000000000E+00 0.000000000000E+00 0.000000000000E+00 0.000000000000E+00 0.000000000000E+00 0.000000000000E+00 0.000000000000E+00 0.000000000000E+00 0.000000000000E+00 0.000000000000E+00 0.000000000000E+00 0.000000000000E+00 0.000000000000E+00 0.000000000000E+00 0.000000000000E+00 0.000000000000E+00 0.000000000000E+00 0.000000000000E+00 0.000000000000E+00 0.000000000000E+00 0.000000000000E+00 0.000000000000E+00 0.000000000000E+00 0.000000000000E+00 0.000000000000E+00
 -3.954588750244E-04 8.226651267145E-03 0.000000000000E+00 -1.231342617055E+03 4.481199024675E+02 0.000000000000E+00 -2.655075301960E-02 5.844284760021E-03 0.000000000000E+00 1.565266652418E-02 1.566865471890E-02 0.000000000000E+00 -1.782035684002E-03 -7.245828595717E-03 0.000000000000E+00 4.038001627033E+01 -2.125735619941E-01 0.000000000000E+00 -8.817601211834E-03 -4.708621278172E-05 0.000000000000E+00 -2.005448329394E+01 3.585773670796E+01 0.000000000000E+00 -1.127221327016E-02 -5.672234905965E-03 0.000000000000E+00 -7.048046245435E-03 3.954850862395E-03 0.000000000000E+00 3.728747402681E-03 -2.696737004184E-03 0.000000000000E+00 -1.810626720318E-03 -9.084944302686E-03 0.000000000000E+00 -4.000097140099E-03 -2.310482893354E-02 0.000000000000E+00 -1.150585216520E+03 -3.949610787442E+02 0.000000000000E+00 4.734856968632E-03 1.384313915011E-03 0.000000000000E+00 3.695733188497E+01 -4.163939448159E-02 0.000000000000E+00 -1.772497398156E+01 -3.262693209063E+01 0.000000000000E+00 2.743943705153E+03
 1.125728814749E-02 1.189718896557E-02 0.000000000000E+00 4.563509196121E+02 -7.445740892348E+02 0.000000000000E+00 5.318400552814E-04 1.693855675194E-02 0.000000000000E+00 2.799258137700E-02 -1.206405856253E-02 0.000000000000E+00 8.051878123179E-03 -6.236401590377E-03 0.000000000000E+00 6.717141083375E+01 -4.154752508673E-01 0.000000000000E+00 -2.795846123757E-02 -1.019828939468E-02 0.000000000000E+00 -3.334511021478E+01 5.972691016445E+01 0.000000000000E+00 1.667614316953E-03 -3.918828577561E-03 0.000000000000E+00 -5.010241414748E-03 1.504648899422E-02 0.000000000000E+00 1.158373440889E-03 2.370718009604E-02 0.000000000000E+00 -2.104108802325E-02 -3.640286326778E-03 0.000000000000E+00 5.956878564354E-03 5.521225734769E-02 0.000000000000E+00 -3.921913392206E+02 -6.741443708405E+02 0.000000000000E+00 1.479034954955E-02 -1.386623560105E-02 0.000000000000E+00 -6.551739399238E+01 1.625534886581E-02 0.000000000000E+00 3.147395896811E+01 5.790089398381E+01 0.000000000000E+00 -7.406265957942E+00 2.805404238531E+03
 0.000000000000E+00 0.000000000000E+00 0.000000000000E+00 0.000000000000E+00 0.000000000000E+00 0.000000000000E+00 0.000000000000E+00 0.000000000000E+00 0.000000000000E+00 0.000000000000E+00 0.000000000000E+00 0.000000000000E+00 0.000000000000E+00 0.000000000000E+00 0.000000000000E+00 0.000000000000E+00 0.000000000000E+00 0.000000000000E+00 0.000000000000E+00 0.000000000000E+00 0.000000000000E+00 0.000000000000E+00 0.000000000000E+00 0.000000000000E+00 0.000000000000E+00 0.000000000000E+00 0.000000000000E+00 0.000000000000E+00 0.000000000000E+00 0.000000000000E+00 0.000000000000E+00 0.000000000000E+00 0.000000000000E+00 0.000000000000E+00 0.000000000000E+00 0.000000000000E+00 0.000000000000E+00 0.000000000000E+00 0.000000000000E+00 0.000000000000E+00 0.000000000000E+00 0.000000000000E+00 0.000000000000E+00 0.000000000000E+00 0.000000000000E+00 0.000000000000E+00 0.000000000000E+00 0.000000000000E+00 0.000000000000E+00 0.000000000000E+00 0.000000000000E+00 0.000000000000E+00 0.000000000000E+00 0.000000000000E+00