#BIOSYM hessian 1
@Type: Hessian Update
@Units
 distance: 	A
 energy: 	Kcal/Mol
#header
@natom 67

#label
C1      C2      C3      C4      C5      C6      C7      C8      C9      C10     C11     C12     C13     C14     C15     C16     C17     C18     C19     C20     C21     C22     C23     O24     C25     C26     C27     C28     C29     C30     C31     C32     C33     C34     C35     C36     C37     C38     C39     C40     C41     C42     C43     C44     C45     C46     C47     C48     C49     H50     H51     H52     H53     H54     H55     H56     H57     H58     H59     H60     H61     H62     H63     H64     H65     H66     H67

#element
C  C  C  C  C  C  C  C  C  C  C  C  C  C  C  C  C  C  C  C  C  C  C  O  C  C  C  C  C  C  C  C  C  C  C  C  C  C  C  C  C  C  C  C  C  C  C  C  C  H  H  H  H  H  H  H  H  H  H  H  H  H  H  H  H  H  H 

#matrix
201
 2.786151796617E+03
 -2.452660355862E+01 2.821303384428E+03
 0.000000000000E+00 0.000000000000E+00 0.000000000000E+00
 3.913812447992E+01 6.676168968503E+01 0.000000000000E+00 2.775884457365E+03
 -2.247433530934E-01 -5.123138190638E-01 0.000000000000E+00 -2.885054236090E+01 2.749874730970E+03
 0.000000000000E+00 0.000000000000E+00 0.000000000000E+00 0.000000000000E+00 0.000000000000E+00 0.000000000000E+00
 -1.971958935424E+01 3.452396884927E+01 0.000000000000E+00 7.221625314398E-02 1.312953812387E-03 0.000000000000E+00 2.814858472549E+03
 -3.404439428893E+01 5.939600393956E+01 0.000000000000E+00 -4.303216158312E-01 -2.609931335472E-01 0.000000000000E+00 -2.976785864614E+01 2.830942861450E+03
 0.000000000000E+00 0.000000000000E+00 0.000000000000E+00 0.000000000000E+00 0.000000000000E+00 0.000000000000E+00 0.000000000000E+00 0.000000000000E+00 0.000000000000E+00
 3.979082820250E+01 -6.921215932254E+01 0.000000000000E+00 -1.971433242840E+01 3.497531580720E+01 0.000000000000E+00 4.226713893984E+01 7.274016514524E+01 0.000000000000E+00 2.799576162798E+03
 -2.824971625168E-01 1.851552262667E-02 0.000000000000E+00 -3.438855296622E+01 5.772860343009E+01 0.000000000000E+00 -3.265045611818E-01 -8.598532694317E-01 0.000000000000E+00 -2.088313703096E+01 2.863835873337E+03
 0.000000000000E+00 0.000000000000E+00 0.000000000000E+00 0.000000000000E+00 0.000000000000E+00 0.000000000000E+00 0.000000000000E+00 0.000000000000E+00 0.000000000000E+00 0.000000000000E+00 0.000000000000E+00 0.000000000000E+00
 2.249436603417E-01 2.807084157073E-01 0.000000000000E+00 1.898295464437E+00 1.506129426080E+00 0.000000000000E+00 4.225906420412E+01 -7.303092017715E+01 0.000000000000E+00 -2.117162432543E+01 3.931693705836E+01 0.000000000000E+00 2.626532281718E+03
 -8.305389072615E-02 -3.191800670257E-01 0.000000000000E+00 -1.632198581687E+00 -1.287559875678E+00 0.000000000000E+00 4.136176494018E-01 -1.186919426755E+00 0.000000000000E+00 -3.604254372860E+01 6.100873123863E+01 0.000000000000E+00 -2.151296744186E+02 2.895808529212E+03
 0.000000000000E+00 0.000000000000E+00 0.000000000000E+00 0.000000000000E+00 0.000000000000E+00 0.000000000000E+00 0.000000000000E+00 0.000000000000E+00 0.000000000000E+00 0.000000000000E+00 0.000000000000E+00 0.000000000000E+00 0.000000000000E+00 0.000000000000E+00 0.000000000000E+00
 -1.232804650928E+03 4.467489246807E+02 0.000000000000E+00 -4.619060549421E+02 -6.220598312701E+00 0.000000000000E+00 -2.734397832114E-02 -5.287958385359E-02 0.000000000000E+00 -1.708385039179E-01 -3.858210445775E-01 0.000000000000E+00 1.965893416665E-01 -3.489587065218E-01 0.000000000000E+00 2.815401663267E+03
 4.415092899683E+02 -7.392962128766E+02 0.000000000000E+00 -4.663481185078E+00 -1.425448392200E+03 0.000000000000E+00 3.156299314966E-02 -6.653316142567E-02 0.000000000000E+00 -1.661583601547E-01 1.648333896230E-01 0.000000000000E+00 -1.651337405010E-04 -1.786854277483E-01 0.000000000000E+00 -3.488224234489E+00 2.773022731253E+03
 0.000000000000E+00 0.000000000000E+00 0.000000000000E+00 0.000000000000E+00 0.000000000000E+00 0.000000000000E+00 0.000000000000E+00 0.000000000000E+00 0.000000000000E+00 0.000000000000E+00 0.000000000000E+00 0.000000000000E+00 0.000000000000E+00 0.000000000000E+00 0.000000000000E+00 0.000000000000E+00 0.000000000000E+00 0.000000000000E+00
 -1.193444358701E+03 -4.140393784812E+02 0.000000000000E+00 -4.331015118883E-01 -6.127787883863E-01 0.000000000000E+00 -1.264151386224E+03 4.451645087620E+02 0.000000000000E+00 -4.916912693297E+02 -8.402651880124E+00 0.000000000000E+00 3.393730367667E-01 -4.686493297931E-01 0.000000000000E+00 -1.966636203342E+01 -3.333451070290E+01 0.000000000000E+00 2.827033178492E+03
 -4.143369120792E+02 -7.062482081124E+02 0.000000000000E+00 8.033782014676E-01 6.270655127115E-01 0.000000000000E+00 4.475391689898E+02 -7.460161664983E+02 0.000000000000E+00 -1.007588479639E+01 -1.531078821513E+03 0.000000000000E+00 -8.590542708197E-01 1.018489403804E+00 0.000000000000E+00 3.448812616967E+01 5.840215469369E+01 0.000000000000E+00 -2.541189153493E+01 2.866099524730E+03
 0.000000000000E+00 0.000000000000E+00 0.000000000000E+00 0.000000000000E+00 0.000000000000E+00 0.000000000000E+00 0.000000000000E+00 0.000000000000E+00 0.000000000000E+00 0.000000000000E+00 0.000000000000E+00 0.000000000000E+00 0.000000000000E+00 0.000000000000E+00 0.000000000000E+00 0.000000000000E+00 0.000000000000E+00 0.000000000000E+00 0.000000000000E+00 0.000000000000E+00 0.000000000000E+00
 1.327688853277E-01 2.810194663788E-01 0.000000000000E+00 -1.205210126681E+03 -4.139962224098E+02 0.000000000000E+00 1.058268494694E-02 5.128681744951E-01 0.000000000000E+00 -1.229264067578E+03 4.427075883466E+02 0.000000000000E+00 -1.610097876923E+00 2.078381819378E+00 0.000000000000E+00 3.726743583503E+01 -1.645103583836E-01 0.000000000000E+00 4.204926767120E+01 -1.297093929909E+00 0.000000000000E+00 2.799537496845E+03
 1.421044179668E-01 2.660221230854E-01 0.000000000000E+00 -4.170670768334E+02 -6.993821703218E+02 0.000000000000E+00 -2.723167312713E-02 4.553459024261E-01 0.000000000000E+00 4.405966174306E+02 -7.391186706072E+02 0.000000000000E+00 -1.360893861171E+00 2.253582309301E+00 0.000000000000E+00 -6.578612448368E+01 1.101476801420E-01 0.000000000000E+00 7.093463247029E+01 -1.317280329071E+00 0.000000000000E+00 -1.797062340996E+01 2.829671878527E+03
 0.000000000000E+00 0.000000000000E+00 0.000000000000E+00 0.000000000000E+00 0.000000000000E+00 0.000000000000E+00 0.000000000000E+00 0.000000000000E+00 0.000000000000E+00 0.000000000000E+00 0.000000000000E+00 0.000000000000E+00 0.000000000000E+00 0.000000000000E+00 0.000000000000E+00 0.000000000000E+00 0.000000000000E+00 0.000000000000E+00 0.000000000000E+00 0.000000000000E+00 0.000000000000E+00 0.000000000000E+00 0.000000000000E+00 0.000000000000E+00
 -2.401265424103E-02 1.322920387812E-02 0.000000000000E+00 -1.240725568255E-01 -1.008184499676E-01 0.000000000000E+00 -1.195954458446E+03 -4.106816692867E+02 0.000000000000E+00 -1.531200302968E-01 1.104984973371E-01 0.000000000000E+00 -5.219397066464E+02 1.177712504413E+01 0.000000000000E+00 3.643149698917E-02 2.928247478221E-02 0.000000000000E+00 -1.986837894581E+01 -3.441726710025E+01 0.000000000000E+00 9.311275746698E-02 -1.728796308552E-02 0.000000000000E+00 2.775852375755E+03
 4.342041725555E-02 1.205368932912E-01 0.000000000000E+00 9.013745708416E-01 6.277646239586E-01 0.000000000000E+00 -4.194089251229E+02 -7.100759349713E+02 0.000000000000E+00 1.246514148205E-01 6.713544779008E-01 0.000000000000E+00 1.190606612098E+01 -1.639667593115E+03 0.000000000000E+00 9.965722948581E-02 1.000355484283E-01 0.000000000000E+00 3.472408771664E+01 5.903494728076E+01 0.000000000000E+00 -8.536411866276E-01 -7.251806415409E-01 0.000000000000E+00 -2.860683936517E+01 2.966034337906E+03
 0.000000000000E+00 0.000000000000E+00 0.000000000000E+00 0.000000000000E+00 0.000000000000E+00 0.000000000000E+00 0.000000000000E+00 0.000000000000E+00 0.000000000000E+00 0.000000000000E+00 0.000000000000E+00 0.000000000000E+00 0.000000000000E+00 0.000000000000E+00 0.000000000000E+00 0.000000000000E+00 0.000000000000E+00 0.000000000000E+00 0.000000000000E+00 0.000000000000E+00 0.000000000000E+00 0.000000000000E+00 0.000000000000E+00 0.000000000000E+00 0.000000000000E+00 0.000000000000E+00 0.000000000000E+00
 -2.060527171139E-01 -4.188369882348E-01 0.000000000000E+00 -3.393554445204E+00 -2.204654029733E+00 0.000000000000E+00 4.899069870816E-03 -6.961825345306E-01 0.000000000000E+00 -1.199115117009E+03 -4.207693852366E+02 0.000000000000E+00 -1.324639503035E+03 4.819059559995E+02 0.000000000000E+00 -2.488489919128E-01 -1.362596419580E-01 0.000000000000E+00 3.894502197959E+01 1.463085843493E+00 0.000000000000E+00 -1.627013401126E+01 -3.123378266713E+01 0.000000000000E+00 4.883525420287E+01 1.949968366972E+00 0.000000000000E+00 2.884467186421E+03
 1.909828383664E-01 1.658186514979E-01 0.000000000000E+00 2.225206444413E+00 1.430885484261E+00 0.000000000000E+00 1.271124956884E-01 2.528680273333E-01 0.000000000000E+00 -4.119133876559E+02 -7.131775479510E+02 0.000000000000E+00 4.833298471011E+02 -8.127803372829E+02 0.000000000000E+00 -1.573110384621E-01 -1.761693988786E-01 0.000000000000E+00 -6.954255704012E+01 -4.452311390121E-01 0.000000000000E+00 3.376287645798E+01 6.020791883925E+01 0.000000000000E+00 8.097475563939E+01 3.857349178737E-01 0.000000000000E+00 -8.471039121166E+01 2.910009001930E+03
 0.000000000000E+00 0.000000000000E+00 0.000000000000E+00 0.000000000000E+00 0.000000000000E+00 0.000000000000E+00 0.000000000000E+00 0.000000000000E+00 0.000000000000E+00 0.000000000000E+00 0.000000000000E+00 0.000000000000E+00 0.000000000000E+00 0.000000000000E+00 0.000000000000E+00 0.000000000000E+00 0.000000000000E+00 0.000000000000E+00 0.000000000000E+00 0.000000000000E+00 0.000000000000E+00 0.000000000000E+00 0.000000000000E+00 0.000000000000E+00 0.000000000000E+00 0.000000000000E+00 0.000000000000E+00 0.000000000000E+00 0.000000000000E+00 0.000000000000E+00
 8.576773111381E-03 1.306105304199E-02 0.000000000000E+00 3.817513426562E-02 2.802429700703E-02 0.000000000000E+00 -7.298485949884E-03 1.601359995312E-02 0.000000000000E+00 1.153881489426E-02 5.132801118428E-02 0.000000000000E+00 -2.099081501664E-02 2.792599978355E-02 0.000000000000E+00 -3.891764455013E-03 -2.455038013350E-02 0.000000000000E+00 2.098907447987E-03 -2.139823525126E-02 0.000000000000E+00 5.726619237721E-02 1.164426844156E-02 0.000000000000E+00 6.786884555658E-03 -1.888808049441E-02 0.000000000000E+00 8.026255252795E-02 -4.897808668506E-02 0.000000000000E+00 2.809151846399E+03
 1.586106749269E-02 2.968864215023E-02 0.000000000000E+00 1.185174546394E-01 7.410794820779E-02 0.000000000000E+00 9.331374019207E-04 2.589322150583E-02 0.000000000000E+00 -1.695734575716E-02 5.852697425459E-02 0.000000000000E+00 -6.563270758397E-02 1.086652976789E-01 0.000000000000E+00 3.131572505764E-03 -3.678729735506E-02 0.000000000000E+00 2.019813776415E-02 -2.844242871445E-02 0.000000000000E+00 -5.306527884190E-02 9.302797533671E-03 0.000000000000E+00 4.485351976914E-03 -5.304077279586E-02 0.000000000000E+00 1.555295190846E-01 -1.041381517642E-01 0.000000000000E+00 1.936549107071E+00 2.800959040805E+03
 0.000000000000E+00 0.000000000000E+00 0.000000000000E+00 0.000000000000E+00 0.000000000000E+00 0.000000000000E+00 0.000000000000E+00 0.000000000000E+00 0.000000000000E+00 0.000000000000E+00 0.000000000000E+00 0.000000000000E+00 0.000000000000E+00 0.000000000000E+00 0.000000000000E+00 0.000000000000E+00 0.000000000000E+00 0.000000000000E+00 0.000000000000E+00 0.000000000000E+00 0.000000000000E+00 0.000000000000E+00 0.000000000000E+00 0.000000000000E+00 0.000000000000E+00 0.000000000000E+00 0.000000000000E+00 0.000000000000E+00 0.000000000000E+00 0.000000000000E+00 0.000000000000E+00 0.000000000000E+00 0.000000000000E+00
 -7.483299816232E-03 -2.469673291959E-02 0.000000000000E+00 -1.416738438545E-01 -8.967583437658E-02 0.000000000000E+00 8.203116773217E-04 -2.990239768660E-02 0.000000000000E+00 1.291307235202E-02 -6.932337466216E-02 0.000000000000E+00 9.323662937775E-02 -1.248307613604E-01 0.000000000000E+00 -1.061030223815E-02 2.798531007123E-02 0.000000000000E+00 -2.183742404917E-02 4.387669577007E-02 0.000000000000E+00 6.024693519983E-02 5.193669539977E-03 0.000000000000E+00 -5.426375353201E-03 5.943908885244E-02 0.000000000000E+00 -1.875670697503E-01 9.903226509356E-02 0.000000000000E+00 4.132865292477E+01 7.187654888507E+01 0.000000000000E+00 2.780180309672E+03
 -9.432004365087E-04 9.261377899971E-03 0.000000000000E+00 2.034200118415E-02 -1.797968951411E-03 0.000000000000E+00 2.896632131997E-03 1.053241504241E-03 0.000000000000E+00 -6.887349829485E-03 2.436655108703E-02 0.000000000000E+00 -3.336318324815E-02 1.264913026832E-02 0.000000000000E+00 7.352074473812E-03 -2.974078218613E-04 0.000000000000E+00 1.504647288397E-02 -1.187861061560E-02 0.000000000000E+00 -7.049121959845E-02 -7.241831788648E-02 0.000000000000E+00 5.673653311040E-04 -7.984603746442E-03 0.000000000000E+00 3.318971779543E-02 -5.357192276882E-02 0.000000000000E+00 -8.693515888703E-01 -1.511066620963E+00 0.000000000000E+00 2.775458297766E+02 2.861174587590E+03
 0.000000000000E+00 0.000000000000E+00 0.000000000000E+00 0.000000000000E+00 0.000000000000E+00 0.000000000000E+00 0.000000000000E+00 0.000000000000E+00 0.000000000000E+00 0.000000000000E+00 0.000000000000E+00 0.000000000000E+00 0.000000000000E+00 0.000000000000E+00 0.000000000000E+00 0.000000000000E+00 0.000000000000E+00 0.000000000000E+00 0.000000000000E+00 0.000000000000E+00 0.000000000000E+00 0.000000000000E+00 0.000000000000E+00 0.000000000000E+00 0.000000000000E+00 0.000000000000E+00 0.000000000000E+00 0.000000000000E+00 0.000000000000E+00 0.000000000000E+00 0.000000000000E+00 0.000000000000E+00 0.000000000000E+00 0.000000000000E+00 0.000000000000E+00 0.000000000000E+00
 -2.033160870847E+01 -3.455651508984E+01 0.000000000000E+00 3.834175168553E+01 -3.235574082518E-01 0.000000000000E+00 1.862013494686E-03 -3.942959606741E-02 0.000000000000E+00 -4.406141928445E-02 -1.075620277832E-01 0.000000000000E+00 2.139541882116E-01 -1.294063793976E-01 0.000000000000E+00 -1.239649289989E+03 -4.342205299673E+02 0.000000000000E+00 -4.244475718566E-02 1.160910240340E-01 0.000000000000E+00 2.373226383260E-01 3.159558029541E-01 0.000000000000E+00 -1.586922404970E-02 7.143991550892E-02 0.000000000000E+00 -3.169083703742E-01 1.742764034375E-01 0.000000000000E+00 -1.938204499423E+01 3.375219789398E+01 0.000000000000E+00 -2.280094216360E-03 -5.723762177773E-03 0.000000000000E+00 2.772783869689E+03
 3.561226606754E+01 6.061554972134E+01 0.000000000000E+00 -6.734337572260E+01 3.471111259403E-01 0.000000000000E+00 -9.895033474383E-03 3.306987191484E-02 0.000000000000E+00 -5.948112355076E-03 1.129800847368E-01 0.000000000000E+00 -6.414160402169E-02 -1.278850586705E-02 0.000000000000E+00 -4.392520570008E+02 -7.249051013746E+02 0.000000000000E+00 3.228094271120E-02 -3.665640240730E-02 0.000000000000E+00 -1.964880581160E-01 -3.033013316314E-01 0.000000000000E+00 2.809883205947E-02 -4.939591119156E-02 0.000000000000E+00 2.462843212439E-01 -4.755481221499E-01 0.000000000000E+00 -3.277501945802E+01 5.705212918395E+01 0.000000000000E+00 4.098915049055E-03 7.467555180259E-03 0.000000000000E+00 1.664711993284E+01 2.802744953221E+03
 0.000000000000E+00 0.000000000000E+00 0.000000000000E+00 0.000000000000E+00 0.000000000000E+00 0.000000000000E+00 0.000000000000E+00 0.000000000000E+00 0.000000000000E+00 0.000000000000E+00 0.000000000000E+00 0.000000000000E+00 0.000000000000E+00 0.000000000000E+00 0.000000000000E+00 0.000000000000E+00 0.000000000000E+00 0.000000000000E+00 0.000000000000E+00 0.000000000000E+00 0.000000000000E+00 0.000000000000E+00 0.000000000000E+00 0.000000000000E+00 0.000000000000E+00 0.000000000000E+00 0.000000000000E+00 0.000000000000E+00 0.000000000000E+00 0.000000000000E+00 0.000000000000E+00 0.000000000000E+00 0.000000000000E+00 0.000000000000E+00 0.000000000000E+00 0.000000000000E+00 0.000000000000E+00 0.000000000000E+00 0.000000000000E+00
 9.562485601382E-03 3.585389912790E-02 0.000000000000E+00 -1.865282389299E+01 -3.141240645919E+01 0.000000000000E+00 -1.769784921011E-02 7.463552408987E-02 0.000000000000E+00 8.057906500830E-02 1.860914096533E-01 0.000000000000E+00 -2.546442336601E-01 3.246471290535E-01 0.000000000000E+00 5.174501919760E-02 7.446574526711E-02 0.000000000000E+00 5.228328240392E-02 -1.499056727644E-01 0.000000000000E+00 -1.029733357169E-01 -6.879315920380E-02 0.000000000000E+00 -3.905307222512E-03 -1.449486997241E-01 0.000000000000E+00 3.907312524436E-01 1.266785944135E-02 0.000000000000E+00 3.981017020635E+01 -6.933281643735E+01 0.000000000000E+00 -2.295264766558E+01 4.006955586321E+01 0.000000000000E+00 3.990671686067E+01 6.723320531878E+01 0.000000000000E+00 2.772509389752E+03
 -1.039004376278E-02 -2.369714022237E-02 0.000000000000E+00 3.295309859910E+01 5.541704191813E+01 0.000000000000E+00 4.014842324962E-03 -1.584462690828E-02 0.000000000000E+00 -2.994263235404E-03 1.721641953628E-01 0.000000000000E+00 -9.705419338285E-03 -1.743722782723E-01 0.000000000000E+00 4.544522518038E-02 1.025437325190E-01 0.000000000000E+00 4.415290229728E-02 -1.047533373653E-02 0.000000000000E+00 -2.382959789180E-01 -4.676987846445E-01 0.000000000000E+00 2.503520133902E-02 3.109301844821E-02 0.000000000000E+00 5.410699330561E-02 -5.339426057802E-01 0.000000000000E+00 5.960641839843E-02 -1.237301016900E-01 0.000000000000E+00 -4.242158390648E+01 7.404629050807E+01 0.000000000000E+00 4.551645591650E-02 7.283696094393E-02 0.000000000000E+00 -3.908314443462E+01 2.760590775115E+03
 0.000000000000E+00 0.000000000000E+00 0.000000000000E+00 0.000000000000E+00 0.000000000000E+00 0.000000000000E+00 0.000000000000E+00 0.000000000000E+00 0.000000000000E+00 0.000000000000E+00 0.000000000000E+00 0.000000000000E+00 0.000000000000E+00 0.000000000000E+00 0.000000000000E+00 0.000000000000E+00 0.000000000000E+00 0.000000000000E+00 0.000000000000E+00 0.000000000000E+00 0.000000000000E+00 0.000000000000E+00 0.000000000000E+00 0.000000000000E+00 0.000000000000E+00 0.000000000000E+00 0.000000000000E+00 0.000000000000E+00 0.000000000000E+00 0.000000000000E+00 0.000000000000E+00 0.000000000000E+00 0.000000000000E+00 0.000000000000E+00 0.000000000000E+00 0.000000000000E+00 0.000000000000E+00 0.000000000000E+00 0.000000000000E+00 0.000000000000E+00 0.000000000000E+00 0.000000000000E+00
 -9.982426166139E-03 1.542430282515E-02 0.000000000000E+00 6.325790634611E-02 2.747784410736E-02 0.000000000000E+00 6.179872888457E-03 1.093702207626E-02 0.000000000000E+00 -2.038139557437E-02 4.916689671736E-02 0.000000000000E+00 -7.059974828850E-02 4.057837002441E-02 0.000000000000E+00 2.094555629236E-02 -2.554286870227E-03 0.000000000000E+00 3.040663897191E-02 -2.607665733525E-02 0.000000000000E+00 -1.370949927556E-01 -1.285611293956E-01 0.000000000000E+00 3.752117758324E-03 -2.986341124987E-02 0.000000000000E+00 1.129322243025E-01 -1.572460145885E-01 0.000000000000E+00 -1.236934905898E+03 4.321463220476E+02 0.000000000000E+00 -5.071360215092E+02 -1.371418614888E+01 0.000000000000E+00 -1.423701549741E-03 8.276675371253E-03 0.000000000000E+00 -3.039862086363E-02 -1.366241914619E-02 0.000000000000E+00 2.841564977758E+03
 9.741952590613E-03 1.251123191758E-03 0.000000000000E+00 4.751093370277E-02 6.388892321993E-02 0.000000000000E+00 -5.790766044202E-03 1.881170786837E-02 0.000000000000E+00 3.844945845465E-02 7.210488574380E-02 0.000000000000E+00 -8.934672524308E-02 7.973937601346E-02 0.000000000000E+00 1.055472360548E-02 2.960044935973E-02 0.000000000000E+00 1.092403876924E-02 -5.017394976009E-02 0.000000000000E+00 -6.556887135749E-02 -7.640549786741E-02 0.000000000000E+00 3.783142020918E-03 -3.496197851216E-02 0.000000000000E+00 1.379392623338E-01 -2.393726933539E-02 0.000000000000E+00 4.342991288874E+02 -7.284547564247E+02 0.000000000000E+00 -2.368668349355E+01 -1.542326278772E+03 0.000000000000E+00 1.667355213247E-02 -8.890124355996E-03 0.000000000000E+00 -1.522317011886E-02 1.699332624498E-02 0.000000000000E+00 2.957550198364E+01 2.893619038590E+03
 0.000000000000E+00 0.000000000000E+00 0.000000000000E+00 0.000000000000E+00 0.000000000000E+00 0.000000000000E+00 0.000000000000E+00 0.000000000000E+00 0.000000000000E+00 0.000000000000E+00 0.000000000000E+00 0.000000000000E+00 0.000000000000E+00 0.000000000000E+00 0.000000000000E+00 0.000000000000E+00 0.000000000000E+00 0.000000000000E+00 0.000000000000E+00 0.000000000000E+00 0.000000000000E+00 0.000000000000E+00 0.000000000000E+00 0.000000000000E+00 0.000000000000E+00 0.000000000000E+00 0.000000000000E+00 0.000000000000E+00 0.000000000000E+00 0.000000000000E+00 0.000000000000E+00 0.000000000000E+00 0.000000000000E+00 0.000000000000E+00 0.000000000000E+00 0.000000000000E+00 0.000000000000E+00 0.000000000000E+00 0.000000000000E+00 0.000000000000E+00 0.000000000000E+00 0.000000000000E+00 0.000000000000E+00 0.000000000000E+00 0.000000000000E+00
 -3.473259141779E-03 2.388204406828E-02 0.000000000000E+00 1.088572310726E-01 1.077914948087E-01 0.000000000000E+00 6.885617144270E-03 2.177836490351E-02 0.000000000000E+00 -2.520331000390E-02 4.870707509717E-02 0.000000000000E+00 -1.063647565132E-01 6.385569742018E-02 0.000000000000E+00 -1.957301944234E+01 3.431824881103E+01 0.000000000000E+00 3.912421339489E-02 -3.939271430873E-02 0.000000000000E+00 -1.737785774031E-01 -1.836803119613E-01 0.000000000000E+00 1.143273291902E-02 -4.642548540542E-02 0.000000000000E+00 2.020473640067E-01 -2.106021427689E-01 0.000000000000E+00 -1.218881312748E+03 -4.266355427759E+02 0.000000000000E+00 5.080484493470E-04 -8.865305920312E-03 0.000000000000E+00 -1.176703503858E+03 4.220841839969E+02 0.000000000000E+00 -4.730008765523E+02 -5.860796576786E+00 0.000000000000E+00 -1.965693500782E+01 -3.419033660686E+01 0.000000000000E+00 2.753176684684E+03
 -5.653455741559E-02 -4.032405842206E-02 0.000000000000E+00 -1.957166227907E-01 -1.646310015392E-01 0.000000000000E+00 8.228442874062E-04 -3.563355515032E-02 0.000000000000E+00 1.460842363897E-02 -9.674151967492E-02 0.000000000000E+00 1.106877946688E-01 -2.200360840520E-01 0.000000000000E+00 -3.310762718213E+01 5.806642925846E+01 0.000000000000E+00 -2.692832362639E-02 3.748774923561E-02 0.000000000000E+00 5.428966203463E-02 -1.099112363627E-01 0.000000000000E+00 -3.401531144418E-03 8.494009223192E-02 0.000000000000E+00 -2.407580958276E-01 4.555342722102E-02 0.000000000000E+00 -4.300225099381E+02 -7.161036526546E+02 0.000000000000E+00 -2.807527111701E-02 6.335497387095E-03 0.000000000000E+00 4.234290588238E+02 -7.126481313811E+02 0.000000000000E+00 3.645786817428E+00 -1.500923298045E+03 0.000000000000E+00 3.426734142077E+01 5.953796560526E+01 0.000000000000E+00 3.293330208431E+00 2.812009360810E+03
 0.000000000000E+00 0.000000000000E+00 0.000000000000E+00 0.000000000000E+00 0.000000000000E+00 0.000000000000E+00 0.000000000000E+00 0.000000000000E+00 0.000000000000E+00 0.000000000000E+00 0.000000000000E+00 0.000000000000E+00 0.000000000000E+00 0.000000000000E+00 0.000000000000E+00 0.000000000000E+00 0.000000000000E+00 0.000000000000E+00 0.000000000000E+00 0.000000000000E+00 0.000000000000E+00 0.000000000000E+00 0.000000000000E+00 0.000000000000E+00 0.000000000000E+00 0.000000000000E+00 0.000000000000E+00 0.000000000000E+00 0.000000000000E+00 0.000000000000E+00 0.000000000000E+00 0.000000000000E+00 0.000000000000E+00 0.000000000000E+00 0.000000000000E+00 0.000000000000E+00 0.000000000000E+00 0.000000000000E+00 0.000000000000E+00 0.000000000000E+00 0.000000000000E+00 0.000000000000E+00 0.000000000000E+00 0.000000000000E+00 0.000000000000E+00 0.000000000000E+00 0.000000000000E+00 0.000000000000E+00
 -1.537999885386E-02 -3.286574988262E-02 0.000000000000E+00 -1.150021987314E-01 -1.491749670062E-01 0.000000000000E+00 -3.304235671163E-03 -3.097706812813E-02 0.000000000000E+00 -3.834586611930E-02 -1.319264876620E-01 0.000000000000E+00 1.820303770577E-01 -1.706667514934E-01 0.000000000000E+00 -5.260428455192E-02 -3.684169055665E-02 0.000000000000E+00 -6.102143017050E-02 8.266184664913E-02 0.000000000000E+00 2.041166509896E-01 2.078934689018E-01 0.000000000000E+00 1.377192358491E-03 7.771078311496E-02 0.000000000000E+00 -2.533524636050E-01 9.598834359527E-02 0.000000000000E+00 -1.981424234175E-03 5.547066178683E-03 0.000000000000E+00 -1.501385248134E+03 -5.303357554008E+02 0.000000000000E+00 -2.119462586910E-02 -7.604045696432E-03 0.000000000000E+00 -1.282192190643E+03 4.339013912723E+02 0.000000000000E+00 4.913253195823E+01 -1.022170864198E+00 0.000000000000E+00 3.916184631203E+01 4.779480447689E-02 0.000000000000E+00 3.073728638571E+03
 -3.533017074884E-03 1.427762186731E-02 0.000000000000E+00 6.945504199424E-02 3.595784419395E-02 0.000000000000E+00 -1.237756008099E-03 2.221512800927E-02 0.000000000000E+00 -1.247446977779E-02 8.335869774074E-02 0.000000000000E+00 -6.778683758582E-02 3.938445551364E-02 0.000000000000E+00 1.676101319509E-02 -8.037866392713E-03 0.000000000000E+00 2.499437199408E-02 -3.670222854293E-02 0.000000000000E+00 -7.368766779738E-02 -1.162508660258E-01 0.000000000000E+00 1.272095808965E-02 -3.683788661429E-02 0.000000000000E+00 1.648362701937E-01 -2.101204095020E-01 0.000000000000E+00 -9.615900967916E-03 1.149638644139E-03 0.000000000000E+00 -5.399696600162E+02 -8.693351054790E+02 0.000000000000E+00 -9.869116470768E-04 4.057746814325E-03 0.000000000000E+00 4.185572319385E+02 -7.233877248494E+02 0.000000000000E+00 -8.565630314733E+01 1.789823161004E+00 0.000000000000E+00 7.235892200621E+01 1.202559861223E-01 0.000000000000E+00 9.150256744254E+01 2.540040310311E+03
 0.000000000000E+00 0.000000000000E+00 0.000000000000E+00 0.000000000000E+00 0.000000000000E+00 0.000000000000E+00 0.000000000000E+00 0.000000000000E+00 0.000000000000E+00 0.000000000000E+00 0.000000000000E+00 0.000000000000E+00 0.000000000000E+00 0.000000000000E+00 0.000000000000E+00 0.000000000000E+00 0.000000000000E+00 0.000000000000E+00 0.000000000000E+00 0.000000000000E+00 0.000000000000E+00 0.000000000000E+00 0.000000000000E+00 0.000000000000E+00 0.000000000000E+00 0.000000000000E+00 0.000000000000E+00 0.000000000000E+00 0.000000000000E+00 0.000000000000E+00 0.000000000000E+00 0.000000000000E+00 0.000000000000E+00 0.000000000000E+00 0.000000000000E+00 0.000000000000E+00 0.000000000000E+00 0.000000000000E+00 0.000000000000E+00 0.000000000000E+00 0.000000000000E+00 0.000000000000E+00 0.000000000000E+00 0.000000000000E+00 0.000000000000E+00 0.000000000000E+00 0.000000000000E+00 0.000000000000E+00 0.000000000000E+00 0.000000000000E+00 0.000000000000E+00
 4.773024880410E-02 1.184629204693E-01 0.000000000000E+00 -1.229284540422E+03 4.441868076911E+02 0.000000000000E+00 1.651257264919E-02 1.251922388202E-01 0.000000000000E+00 9.806745399171E-03 6.084695584831E-01 0.000000000000E+00 -5.368641813829E-01 4.022388710707E-01 0.000000000000E+00 3.997054302148E+01 -1.603366071652E-01 0.000000000000E+00 1.703847327750E-01 -2.783262925678E-01 0.000000000000E+00 -2.023734365152E+01 3.441629141041E+01 0.000000000000E+00 4.096958373943E-02 -2.482650031696E-01 0.000000000000E+00 1.044025135060E+00 -1.086849555557E+00 0.000000000000E+00 -8.229583554910E-03 -3.071490805501E-02 0.000000000000E+00 3.445323124760E-02 -6.391193645826E-04 0.000000000000E+00 1.365053454101E-02 1.107878608922E-02 0.000000000000E+00 -1.134392718826E+03 -3.900341189631E+02 0.000000000000E+00 -2.593043624605E-03 -2.368211660812E-02 0.000000000000E+00 3.693015415754E+01 1.353852210025E-01 0.000000000000E+00 -1.766326240616E+01 -3.272054270296E+01 0.000000000000E+00 2.730905759336E+03
 -1.974264043012E-01 -3.360789755385E-01 0.000000000000E+00 4.517538599149E+02 -7.380245147338E+02 0.000000000000E+00 2.125077659208E-02 -4.637159925265E-01 0.000000000000E+00 -3.541578739478E-01 -1.756303397571E+00 0.000000000000E+00 1.966964234354E+00 -1.979227950800E+00 0.000000000000E+00 6.650826280459E+01 -4.481194286386E-01 0.000000000000E+00 -4.742873564815E-01 1.000759164771E+00 0.000000000000E+00 -3.125255765873E+01 6.041015010427E+01 0.000000000000E+00 -8.139983634524E-02 9.476763581872E-01 0.000000000000E+00 -3.349794697929E+00 1.836515663294E+00 0.000000000000E+00 2.358901751142E-02 1.035392707995E-01 0.000000000000E+00 -1.145775593469E-01 3.761944519325E-02 0.000000000000E+00 -1.706901771513E-01 3.467984440471E-02 0.000000000000E+00 -3.886095601255E+02 -6.704315280139E+02 0.000000000000E+00 6.575581355876E-02 7.130922467946E-02 0.000000000000E+00 -6.483548152429E+01 -2.626503552060E-01 0.000000000000E+00 3.089921211838E+01 5.754951522936E+01 0.000000000000E+00 -8.808448129701E+00 2.824595679348E+03
 0.000000000000E+00 0.000000000000E+00 0.000000000000E+00 0.000000000000E+00 0.000000000000E+00 0.000000000000E+00 0.000000000000E+00 0.000000000000E+00 0.000000000000E+00 0.000000000000E+00 0.000000000000E+00 0.000000000000E+00 0.000000000000E+00 0.000000000000E+00 0.000000000000E+00 0.000000000000E+00 0.000000000000E+00 0.000000000000E+00 0.000000000000E+00 0.000000000000E+00 0.000000000000E+00 0.000000000000E+00 0.000000000000E+00 0.000000000000E+00 0.000000000000E+00 0.000000000000E+00 0.000000000000E+00 0.000000000000E+00 0.000000000000E+00 0.000000000000E+00 0.000000000000E+00 0.000000000000E+00 0.000000000000E+00 0.000000000000E+00 0.000000000000E+00 0.000000000000E+00 0.000000000000E+00 0.000000000000E+00 0.000000000000E+00 0.000000000000E+00 0.000000000000E+00 0.000000000000E+00 0.000000000000E+00 0.000000000000E+00 0.000000000000E+00 0.000000000000E+00 0.000000000000E+00 0.000000000000E+00 0.000000000000E+00 0.000000000000E+00 0.000000000000E+00 0.000000000000E+00 0.000000000000E+00 0.000000000000E+00