#BIOSYM hessian 1
@Type: Hessian Update
@Units
 distance: 	A
 energy: 	Kcal/Mol
#header
@natom 70

#label
C1      C2      C3      C4      C5      C6      C7      C8      C9      C10     C11     C12     C13     C14     C15     C16     C17     C18     C19     C20     C21     C22     C23     H24     C25     C26     C27     C28     C29     C30     C31     C32     C33     C34     C35     C36     C37     C38     C39     C40     C41     C42     C43     C44     C45     C46     C47     C48     C49     H50     H51     H52     H53     H54     H55     H56     H57     H58     H59     H60     H61     H62     H63     H64     H65     H66     O67     H68     O69     H70

#element
C  C  C  C  C  C  C  C  C  C  C  C  C  C  C  C  C  C  C  C  C  C  C  H  C  C  C  C  C  C  C  C  C  C  C  C  C  C  C  C  C  C  C  C  C  C  C  C  C  H  H  H  H  H  H  H  H  H  H  H  H  H  H  H  H  H  O  H  O  H 

#matrix
210
 2.774833157701E+03
 -2.285131856870E+01 2.799798563188E+03
 3.237044727546E+00 1.520011911178E+01 1.905884116596E+02
 3.903382555118E+01 6.578928253076E+01 6.052069351674E-01 2.800389768136E+03
 -3.540421945343E-01 -8.359332797438E-01 9.475272725102E-03 -3.185162559736E+01 2.751861731865E+03
 6.267023760617E-02 -1.162009408119E-01 8.426619642651E+00 3.695236572733E+01 1.427582560173E+01 1.918741570464E+02
 -1.891372209809E+01 3.432340915622E+01 5.121883181779E-01 -2.837638505076E-02 -3.151719806630E-01 -8.998144686931E-02 2.806040709535E+03
 -3.280094037833E+01 5.868079898051E+01 6.727442716413E-01 -3.846034588138E-02 -1.202359810575E-01 -2.646803454652E-02 3.000362720917E+01 2.746929007445E+03
 -2.121000363915E-01 4.322110077473E-01 8.965892020410E+00 -7.813780233415E-02 2.481153946636E-01 6.558019777159E-01 1.698893168550E+00 3.633874631296E+01 1.870809871476E+02
 3.693729280137E+01 -6.653029993407E+01 -1.124939618059E+00 -1.938647125478E+01 3.490744832054E+01 1.074868956417E-01 4.008731921469E+01 6.867823325695E+01 1.014837516668E+00 2.792161271239E+03
 -2.201008579430E-01 2.057616983878E-01 2.473078691914E-02 -3.255234124559E+01 5.894059821779E+01 3.221598822892E-01 -2.136151276574E-01 -6.601346211912E-01 -9.902254275197E-02 -2.858578996189E+00 2.800245094658E+03
 -1.924203377984E-01 -5.440405807504E-02 8.669830265269E+00 -5.599592006337E-01 1.065607715457E+00 8.796579320502E+00 9.983168213609E-03 -1.186172870223E-01 9.514450678056E+00 1.085467571477E+01 3.439642775214E+01 1.932523131098E+02
 -1.564151185883E-01 -3.314686344771E-01 -8.617080123772E-02 3.840144775639E-02 2.469785977118E-01 -4.417002306849E-02 5.367286892282E+01 -8.370497865471E+01 -1.509837819367E+00 -2.168889004379E+01 3.743422228960E+01 4.661950823587E-01 2.605994115418E+03
 -4.486610557921E-02 -2.667929798590E-01 -1.408875248110E-01 -3.284782796905E-03 1.870340693437E-01 -5.901895492952E-02 1.429960459832E+00 6.616754913302E-01 -1.210225475191E-01 -3.520857624756E+01 6.128455192245E+01 6.178456074524E-01 -1.810745288764E+02 3.057032154714E+03
 -1.071236947421E-02 1.190209152617E-02 1.105887887172E-01 -8.179120254322E-02 2.276066825965E-01 6.327063046823E-01 -1.897317403596E-01 -3.507252563562E-01 1.331328717678E+01 -5.558985633550E-01 7.750549155308E-01 1.084098733780E+01 3.770919865429E+00 4.574437906746E+01 1.513892709344E+02
 -1.222461906290E+03 4.467156110563E+02 -2.496345449682E-01 -4.576272803440E+02 -1.059624563159E+01 -2.571478129236E+00 4.688426141670E-03 8.262388610099E-02 4.784805501305E-03 -7.458719511004E-02 -9.621530942159E-02 -6.438964531849E-02 9.651655100195E-02 1.290914523240E-02 4.563513888292E-02 2.817577025028E+03
 4.392941676463E+02 -7.368087603322E+02 -2.703581242813E+00 -8.445406708864E+00 -1.406311462691E+03 -6.332346622844E+00 5.154830711084E-01 1.230665626126E-01 2.912851494556E-03 1.493952220607E-01 1.919184295668E-01 2.534994450637E-01 -5.116706235638E-01 -3.808809783471E-01 1.499805374253E-02 3.639483304320E+00 2.750699812860E+03
 4.064813114155E-01 -2.655306100836E+00 -8.237994261973E+01 -3.132609027251E+00 -6.354074121793E+00 -7.948099321800E+01 -8.069896905527E-02 -1.010251566838E-01 4.684877966457E+00 6.836957610210E-02 -1.054588816154E-01 -8.844865563527E+00 -3.871040668843E-02 -1.276980974407E-02 8.056748756390E-02 7.688132577553E+00 1.038668322301E+01 1.905126849816E+02
 -1.192608467194E+03 -4.077159548715E+02 -3.498327994387E+00 3.165710613987E-02 -1.391811774868E-01 7.024543433251E-02 -1.238749818826E+03 4.422967529046E+02 5.292559262682E+00 -4.680679466744E+02 -6.928335008126E+00 -5.243261838832E-01 3.970390815833E-01 3.348852111616E-01 7.525140732844E-02 -1.912178734844E+01 -3.201964303720E+01 -2.896087027613E-01 2.785192379801E+03
 -4.061521428779E+02 -6.866636521866E+02 -5.457751671042E+00 -6.944921425775E-02 2.155879470141E-01 5.195889784817E-01 4.521984316331E+02 -7.347841106405E+02 -8.432165207091E+00 -1.009896835597E+01 -1.458286459899E+03 -1.869760518063E+01 9.258024952847E-02 1.084412869482E-01 3.556551282064E-01 3.436511151493E+01 5.782468313901E+01 4.412546033613E-01 -2.938949610243E+01 2.760829778465E+03
 -4.298012116371E+00 -5.126677346167E+00 -7.995795264812E+01 -1.279477618095E-01 1.950832163818E-01 -8.079221406743E+00 6.000774297906E+00 -8.988418959821E+00 -8.214598698943E+01 -7.742556581457E-01 -1.844960354970E+01 -8.207907451986E+01 -1.217314440481E-01 -1.927746138921E-02 -9.993383221914E+00 2.660298982879E-01 2.367087341604E-01 8.464317850183E+00 -1.624746821951E+00 3.204990712427E+01 1.910486334589E+02
 3.425483532941E-02 6.359818912310E-02 -6.166572004127E-02 -1.225567626983E+03 -4.183815468718E+02 -1.652061989157E+01 1.228266992768E-01 -9.960639855435E-03 -2.076599792362E-01 -1.212681358184E+03 4.385451640033E+02 -5.322575903026E-01 -1.326172798506E-01 -5.777517157094E-02 -1.480295454025E-01 3.638054796955E+01 -4.761463260045E-01 5.853485968953E-01 4.006445105568E+01 -3.238529961819E-01 -1.605562354697E-01 2.800704079089E+03
 1.803116215915E-02 7.357239709467E-02 -6.576946936850E-02 -4.228120252891E+02 -7.022208585495E+02 -1.046057412218E+01 -4.230720092702E-01 -4.210529818538E-02 -4.378850778395E-03 4.409529268300E+02 -7.342256306446E+02 -6.989182368341E+00 3.707308353226E-01 3.273718821426E-01 1.530715633463E-02 -6.590425995299E+01 7.415684643864E-01 -8.850737236658E-01 6.734365750800E+01 -4.912941779431E-01 3.838173028269E-01 1.292612400521E+00 2.789580866360E+03
 2.903842019280E-02 2.387825210500E-01 -8.849192312697E+00 -1.702222971532E+01 -1.021971685867E+01 -8.205726407420E+01 8.064072711311E-02 -1.535667218907E-01 4.650624665516E+00 -3.896992451786E-01 -6.684731185354E+00 -8.254373933674E+01 -2.494042045772E-02 -1.200798599722E-01 4.724652428329E+00 2.896847541291E-01 -6.414766624074E-02 8.553797767738E+00 8.974366013843E-01 -1.157659359088E-01 8.937990179311E+00 1.924707704852E+01 3.755450385561E+01 1.936967592722E+02
 -1.596268220863E-01 3.769472782074E-02 -9.020205167538E-02 -5.833870976652E-02 3.377281677098E-01 3.344999351338E-01 -1.244945897809E+03 -4.480734359873E+02 -7.480937546300E+00 -5.190239946084E-02 6.464096757678E-02 8.568346294801E-04 -5.693902939976E+02 -1.011005903935E+01 -1.156981910132E+00 1.311778128269E-01 -3.952945187059E-01 -2.487237971559E-02 -2.137573535465E+01 -3.733126200075E+01 -4.122018727905E-01 -2.137044315527E-01 2.287997840529E-01 3.978066169887E-02 2.606531819276E+03
 5.914922837967E-02 6.097324358150E-01 6.228803954357E-02 -3.530560238351E-02 -2.149771214674E-01 3.669640050989E-01 -4.677670762267E+02 -7.756513070699E+02 -1.048994299071E+01 2.149237323598E-01 4.181867905147E-01 2.122442046594E-01 -1.335591773261E+01 -1.819226476148E+03 -2.858761399229E+01 2.085463442216E-02 6.898220104311E-01 3.317765785040E-02 3.477503682575E+01 6.101550683292E+01 1.133687888918E+00 2.976856105318E-02 -6.753341664673E-01 1.003630484079E-01 1.966412333073E+02 3.032512341540E+03
 9.245669352929E-02 -1.217443128880E-02 4.509073444267E+00 8.376932186283E-02 -2.126276949733E-01 -6.686228760749E-01 -8.352114849553E+00 -1.067438757928E+01 -7.789909350988E+01 5.682614039771E-02 1.563941204507E-01 -1.039587265611E+01 -1.272321917125E+00 -2.831621719560E+01 -7.166393926962E+01 -7.908201580365E-02 -6.159442935685E-02 -6.308980132840E-02 5.037983915477E-01 5.754207468190E-01 9.400279526936E+00 1.876204290926E-01 -7.331646916546E-02 -4.673359203775E-04 7.370683568122E+00 4.449887417681E+01 1.534299491068E+02
 -2.122791305064E-02 3.787064941167E-01 1.271329212860E-01 -6.918920876443E-02 7.810003534849E-02 2.937053134231E-01 -1.676017140618E+00 1.706715186286E-01 1.610849864868E-01 -1.227508039691E+03 -4.316482925419E+02 -9.690446800277E+00 -1.270288545753E+03 4.702693347622E+02 3.721024110136E+00 5.821969497055E-02 1.948374685771E-01 -2.525642616067E-02 3.875155004733E+01 -3.592868737022E-01 4.574778927908E-01 -2.010462340720E+01 -3.412065184593E+01 -4.117938725567E-01 5.341434309260E+01 -2.864784174150E+00 -1.419819405646E-01 2.854993131353E+03
 1.528149684379E-02 3.093364020404E-01 8.982266727666E-02 -5.826137175124E-02 -3.646805052297E-03 2.424221575299E-01 -1.204293197054E+00 1.614751469544E-01 1.675105566408E-01 -4.295924164917E+02 -7.264381657227E+02 -1.016906929844E+01 4.593604777956E+02 -7.912437524359E+02 -9.616782522875E+00 3.858537546917E-02 1.306325804223E-01 6.378725974082E-02 -6.831787286065E+01 4.153929443454E-01 -2.624427810605E-01 3.515715264857E+01 5.896209315290E+01 6.493346353461E-01 8.590435991914E+01 -2.686787001019E+00 -5.761741556114E-02 -4.598545936995E+01 2.885668352956E+03
 5.667128940239E-02 -1.406711040059E-02 4.375238053923E+00 5.276774620500E-02 -1.467443537877E-01 4.173200818643E+00 3.841821824749E-02 2.146455866205E-01 -1.080757892597E+01 -9.745018702273E+00 -1.011515155912E+01 -8.489089841678E+01 3.509670327637E+00 -9.651421610956E+00 -7.787884494373E+01 -8.489171863578E-02 -5.231403557044E-02 -2.179033953949E-02 -6.988791882405E-01 -2.805362976417E-01 9.487409266968E+00 4.346773660929E-01 5.073048379080E-01 8.916905592235E+00 1.333612263689E+00 -3.170363915884E-01 1.131252719400E+01 6.698518641438E+00 4.026185984961E+01 1.858974877933E+02
 4.065699393596E-01 -1.703687650548E+00 -1.006929967658E-01 -8.726145781297E-02 -7.068581643459E-01 -1.660619442071E+00 2.669128848065E+00 -4.567576063041E-01 -8.066797137109E-01 -7.300089605071E-01 -7.739460339879E-01 6.474753250740E-02 -3.131362932264E+00 -2.364962175424E+00 -6.707201744553E-01 -4.063753045194E-01 3.226541558133E-01 1.560026276238E-01 3.511084041796E-01 5.180402200784E-01 -1.003147947767E+00 6.498378612765E-01 6.036614342849E-01 -1.053057495920E-01 -1.351670560230E+00 4.573767471625E+00 9.814193693503E-01 2.126880678782E+00 1.723924209718E+00 7.762047676146E-01 2.870724899461E+03
 1.371786314730E-01 -4.021438543593E-01 2.450416174028E-02 4.554875676500E-01 -3.805667225334E-01 -7.688155303689E-01 9.154454516002E-01 -2.863810552403E-01 -1.549802926816E-01 -7.874301366931E-02 -1.626596006566E-01 8.507058871332E-04 -1.454712265936E+00 -7.616339825005E-01 -1.149739202477E-01 -2.142491411011E-01 -6.886037822097E-02 -2.522235521566E-02 2.531839370150E-01 1.410568673252E-01 -2.865014353425E-01 6.444532776314E-02 1.681787195211E-01 -1.140020460506E-01 -7.052743800510E-01 1.340449807046E+00 2.694922952168E-01 6.282936049935E-01 5.079728983896E-01 3.093557291008E-01 -3.330823711296E+01 2.736966871990E+03
 7.473426691503E-01 4.674587979947E-01 9.177883404942E-02 1.067200049992E-01 -5.895524435589E-01 -1.383920491224E+00 -7.003213462162E-01 -6.906854590282E-01 -4.500044686406E-01 9.789975776615E-01 7.935187024643E-01 8.994220564061E-03 -4.825598486720E-01 4.863912912564E-01 -3.106300047978E-02 -9.499582125191E-01 1.585806890455E-01 4.757228778324E+00 2.989283961856E-01 -4.763437697738E-01 -5.829310271630E-01 1.528938286210E-01 4.046297640641E-01 -2.417258701835E-01 -8.488192218674E-01 -1.583601790678E+00 4.786917592612E-01 -1.636294899911E+00 -6.484838679820E-01 6.754979172910E-01 1.672300926909E+02 -1.542699869972E+02 2.236655056481E+02
 3.593994257643E-01 6.840269325649E-01 -3.827040170056E-02 -5.335562178310E-02 6.274474707235E-03 -1.000832645070E+00 -1.329232057076E+00 -4.688725100539E-01 -3.530994132387E-01 7.206521431882E-01 7.968518408390E-01 8.620864125323E-03 8.024517519649E-01 9.514824269274E-01 -2.619235407518E-01 -3.195045366985E-01 -2.786808364870E-01 -7.412992738131E-02 1.543627766386E-01 -5.473310772800E-01 -5.661882560616E-01 2.354522288336E-01 8.136265229722E-03 -6.020642680792E-02 -1.891911460646E-01 -2.485500184775E+00 3.881475041830E-01 -1.784028012373E+00 -9.790951330012E-01 4.244379503807E-01 5.224843510969E+01 8.280726676079E+01 8.108330498698E+00 2.714298419722E+03
 -3.118701272295E-01 2.106947954083E+00 -9.110914888213E-02 -1.013715297796E-01 2.016200708846E+00 7.804861850330E-01 2.963057075395E+00 7.588601679266E-01 2.417624145425E-01 1.648892655820E+00 1.381365533689E+00 -1.537717096448E-02 -3.203575095578E+00 -2.063235794600E+00 2.043139564430E-01 2.505524239629E-01 -2.777795279870E+00 -1.503377386922E-01 1.404145452351E+00 -1.219250493409E+00 4.553861283774E-01 -8.007656055660E-01 7.266389771103E-01 1.651911947829E-01 -3.001568535826E+00 3.375980099422E+00 -2.583990204682E-01 4.050339326043E-01 5.397335352905E-01 -5.175195755567E-01 4.520708744506E+00 -5.301990178602E-01 -1.147681817230E+00 2.574027303477E+02 2.898135372198E+03
 -2.185491545194E-02 1.617991307366E-02 6.230101035733E-02 -7.525963007947E-02 2.455189372184E-01 4.379568994965E-01 2.308578734558E-01 -4.354384531769E-02 3.486539880877E-01 -1.710666426802E-03 -2.170412529718E-02 -2.888658153043E-02 -3.535228289130E-01 -2.635806534865E-01 3.346567509595E-01 2.590819760496E-02 -1.353143790876E-01 4.628308684342E-02 7.529519119807E-02 6.614100577904E-02 3.753604459836E-01 -1.041385333633E-01 1.308645071966E-01 -7.658384099172E-04 -7.315634481912E-02 5.531043833880E-01 -3.190574328250E-01 2.623191487278E-01 2.422411818400E-01 -1.494023371643E-01 2.202015833255E+00 8.192404832420E+00 1.288360556866E+01 1.990201678996E+02 -1.243434463268E+01 1.642961443269E+02
 -2.018077737822E+01 -3.424467093401E+01 7.581570699054E-02 3.787406256754E+01 -6.411888518524E-01 -5.069504204160E-01 -4.733475187715E-01 2.778885254946E-02 -1.227381464431E-01 -8.346848809272E-02 -3.159575933660E-02 7.923283910994E-02 6.704016931813E-01 4.482006988590E-01 -1.640429972738E-01 -1.256433543917E+03 -4.353640234599E+02 -5.455917550897E+00 -1.780491477478E-01 1.640717149269E-02 -4.733637621111E-02 5.116152014782E-02 -1.822841642397E-01 -7.984989724094E-02 3.431813341233E-01 -8.163031052292E-01 1.529102285205E-01 -2.466430366954E-01 -2.764909151400E-01 6.284626950368E-02 -1.871967492287E+01 3.441164704551E+01 -6.112852580512E-01 -2.021229944777E-01 1.337457902081E+00 -3.903301164184E-02 2.774376149456E+03
 3.600201331210E+01 6.059663648540E+01 2.484424607748E-01 -6.734616772571E+01 6.758062285682E-01 -2.102847980671E-01 4.886888520709E-01 -1.211224037560E-01 2.239048064489E-01 -9.086163254879E-02 -1.535149135113E-01 -5.292814313121E-02 -7.313027287718E-01 -4.555336762322E-01 2.438934765897E-01 -4.410490755910E+02 -7.236447878238E+02 -1.213922666857E-01 1.073891935985E-01 1.588159864375E-01 1.972513233758E-01 -4.413729534714E-02 1.687772964803E-01 -1.671355835779E-01 -2.265365820762E-01 9.481696375689E-01 -1.598163213099E-01 4.869770852549E-01 4.115410463885E-01 -2.077686672138E-02 -3.393630459260E+01 5.757855936658E+01 -1.148049992400E+00 7.449302597978E-01 6.672148248181E-01 2.118270356956E-01 2.697235760043E+01 2.792195894953E+03
 2.850507119824E-02 1.654872052868E-01 9.951221365907E+00 -7.706520698948E-01 1.921047272094E-01 1.009673506837E+01 4.984224245382E-02 2.737165030110E-01 6.569233610720E-01 -1.592104461614E-01 -4.893387965540E-01 -5.068063298231E-02 2.901192629659E-01 -5.923114167271E-03 4.872708182016E-01 -5.532893748494E+00 -1.078649994226E+00 -8.298570899859E+01 -5.005594197718E-01 2.492196408428E-01 5.273787487363E+00 -1.775404599502E-01 1.429135889715E-01 4.537253914282E+00 5.097649318234E-01 2.299607066386E-01 -6.200745595395E-01 4.474009941517E-01 3.259216397902E-01 -4.109998407167E-01 -2.404443603629E+00 6.688909614557E-02 5.226863106891E+00 -1.484295369945E+00 1.415698950142E+00 3.810535052609E-01 3.074965798844E+01 -1.535211534179E+01 1.921545438577E+02
 2.655647709010E-02 4.915161790288E-01 -4.846245763713E-02 -1.892092244723E+01 -3.017955394546E+01 -1.078727505638E+00 2.008709162157E+00 8.186887949913E-02 2.884280855393E-04 6.194400036700E-01 4.821489987383E-01 -9.086642841970E-03 -2.464384242174E+00 -1.640557920723E+00 1.956307659275E-02 -8.158845557375E-02 -1.271488130994E+00 2.945811707823E-02 7.909411263426E-01 -4.415695799691E-01 -3.769393511393E-02 -1.599961342622E-01 6.189832820962E-01 -8.316663292118E-03 -1.796771792980E+00 2.830807732663E+00 6.609104908760E-02 6.626457105606E-01 7.552587272698E-01 2.156484483002E-02 3.904150745644E+01 -6.844721337925E+01 1.322836178870E+00 -2.253784303404E+01 3.228157136074E+01 -2.248955225521E+00 3.983241458145E+01 6.530395673954E+01 -2.444482941439E-01 2.788549597670E+03
 -3.897879907998E-02 -8.446449845814E-01 -1.114241999519E-01 3.365874793703E+01 5.487822292322E+01 1.612792964618E+00 1.184424821630E-01 -2.020540208221E-02 -1.208533827128E-01 -6.723977390988E-01 -6.166981444706E-01 4.638062973260E-02 1.450921881201E-01 -1.140695564974E-01 -1.203684959678E-01 5.631934922531E-02 7.673245677235E-01 -2.411135073196E-01 -2.993467567998E-01 4.969798300587E-01 -8.580961050963E-02 1.978958098640E-01 -1.537734300405E-01 -7.571849692052E-02 5.294856212846E-01 5.669873798148E-01 1.146714604077E-01 7.399478711624E-01 3.459229036881E-01 5.631478021057E-02 -3.357744329056E+00 -1.074999704476E+00 1.026193975112E+00 -4.178922972349E+01 7.952353158054E+01 -2.041863865331E+00 -2.749650820523E-01 -1.020792770901E+00 3.583783902198E-02 -6.534633594506E+01 2.738661274814E+03
 6.127474395816E-02 4.450977541888E-01 -1.139881729135E-01 -1.657760194518E-01 5.254343823239E-01 5.759413249660E+00 -4.643233970564E-01 -2.017847203931E-01 -6.154139669156E-01 7.273743333009E-01 1.041219057683E+00 4.443930258712E-02 -2.582534380027E-01 4.514982716643E-01 -6.039495285472E-01 2.639737048607E-01 -1.057664427431E-01 -8.760821487152E+00 5.157510084883E-01 -7.183476831260E-01 -1.008666653722E+00 -2.933616297389E-01 -1.928222607001E-01 4.132220382543E+00 -7.448561160485E-01 -1.114454931857E+00 7.877426896301E-01 -1.391653161947E+00 -7.599679022286E-01 7.501755691110E-01 5.639702263644E+00 1.995682789433E-01 1.565004216254E+01 1.498210727835E-01 1.383459535657E-01 1.214455388873E+01 6.677943676203E-01 9.485284709119E-01 6.296821371196E+00 1.216558756193E+02 -3.616678256073E+01 1.953976147588E+02
 -6.335802165035E-02 -1.261668293690E+00 5.548441810009E-01 6.904868941669E-01 -2.841751966789E+00 1.893973410618E+00 -1.059929487351E+01 -7.981434523171E-01 1.110104483810E+00 -2.015797495236E+00 -1.469838671779E+00 -6.175490393514E-02 1.161513436241E+01 8.324484872195E+00 9.177857972394E-01 2.188744904670E-01 5.233839604866E+00 3.041948436102E-01 -3.353612066631E+00 1.663527215127E+00 1.101201490465E+00 3.445018019995E-01 -2.583654466444E+00 -1.432324280311E-01 8.333641640376E+00 -1.481148386499E+01 -1.382051724469E+00 -4.455689776400E+00 -4.126714877941E+00 -3.873726436165E-01 -1.312072513365E+03 4.630763381953E+02 -1.275419639228E+02 -5.141723412821E+02 2.193698748249E+01 -4.153673889975E+01 -4.210304824722E+00 1.036090846629E+00 1.142279258375E+00 1.710173404234E+01 -5.850824997817E+00 -1.382691495927E+00 2.541683316949E+03
 6.264577656664E-02 -2.633684225710E+00 -3.734051151402E-02 5.210176992475E-01 -1.994894221176E+00 -2.985489677505E-01 -1.529197148815E-01 -3.990492220302E-02 -9.206276924346E-02 -2.099834349848E+00 -2.114399588897E+00 5.461172869447E-02 6.700404911683E-01 9.191964523777E-02 -2.396554680056E-01 -4.196207000832E-02 2.450534834481E+00 1.345243781567E-01 -1.043456586697E+00 1.666146684116E+00 -2.136754978810E-01 4.069958687474E-01 -3.851697271557E-01 -3.360546224901E-03 2.157060605199E+00 1.585217957177E+00 1.635599192215E-01 2.090183276481E+00 9.982310463273E-01 3.792534382828E-01 4.834851678611E+02 -7.776947518492E+02 6.134114455385E+01 -3.976950832349E+01 -1.612624707359E+03 1.989672935546E+01 -8.684760630665E-01 -1.800218267273E+00 -4.903573188726E-01 6.379062751621E+00 -5.781551582281E+00 1.164125428801E+00 -1.414130653752E+02 2.804544869423E+03
 1.728327331445E-01 -6.013485685658E-01 -2.560651295584E-01 8.569508998199E-01 -1.270174974191E+00 -2.580289268698E+00 -8.979436268687E-01 -4.145210311312E-01 -5.541957121414E-01 -3.120020687826E-01 -1.648734478738E-01 3.701024461463E-03 8.732043395518E-01 7.140314000167E-01 -1.202193065765E+00 -6.066441390389E-01 5.114873347262E-01 -4.609754459325E-01 -4.733516735396E-01 -6.394265305521E-02 -1.559581510625E+00 4.113301289468E-01 -3.646646336640E-01 2.857854697179E-02 4.049160251999E-01 -1.923736823611E+00 1.080344365392E+00 -6.080245626833E-01 -4.444034505491E-01 9.683615980349E-01 -1.217257254607E+02 6.399969239471E+01 -1.007201185933E+02 -4.138715673751E+01 2.351355194084E+01 -8.545858194228E+01 -6.853520965861E-01 1.038485331534E-01 3.251529980932E+00 4.595544416856E+00 -3.441390576469E+00 -4.980339084001E+00 2.835469316202E+02 -1.570539921816E+01 2.883217344986E+02
 -1.070349507059E-01 6.261400383227E-01 -5.963400171750E-02 1.543820654749E-02 7.169516067842E-01 1.906042081857E-01 1.323361242184E+00 1.436884307506E-01 1.871662197906E-01 5.337422369342E-01 4.290511085485E-01 -6.147255240160E-02 -1.633131547261E+00 -9.884904964340E-01 1.772301288170E-01 -1.944599895877E+01 3.382516962407E+01 -9.281803816267E-01 5.989197362743E-01 -3.439348357117E-01 2.066405073985E-01 -3.059227665615E-01 3.022931713991E-01 -3.927778236037E-02 -1.253725647135E+00 1.618463909947E+00 -1.544479592764E-01 3.799566514247E-01 3.830876072568E-01 -1.716980540597E-01 -1.237640150688E+03 -4.296883886479E+02 -3.608022204436E+01 -9.352211161439E-02 -7.896491576907E+00 6.765934726195E-01 -1.162031911218E+03 4.223758081765E+02 -2.310710256527E+01 -4.662931538907E+02 -1.454370572548E+01 -1.457270925352E+01 -8.946612934276E+00 -3.019213914698E+01 2.026504872753E+00 2.753035972216E+03
 -6.342703482683E-02 7.756162542117E-01 -1.570928201119E-02 2.754796708611E-02 4.363950671560E-01 2.654191386938E-01 -1.830903027291E-01 2.820542034946E-01 -1.995106087181E-01 5.041956484974E-01 5.016356763440E-01 -3.792664729987E-03 3.750508090572E-01 3.043798860613E-01 -2.629761024429E-01 -3.259743070799E+01 5.771827487985E+01 -1.368655738574E+00 1.520105352306E-01 -4.616905483638E-01 -2.395334042309E-01 -1.221158772332E-01 -9.914347246744E-02 1.652600565300E-01 -2.878613547497E-01 -8.134541441679E-01 1.366532160694E-01 -6.970143717206E-01 -5.154972227676E-01 -6.455510475595E-02 -4.379156544367E+02 -7.207252041992E+02 3.100737892826E+00 -1.050683841483E+00 -5.655011619775E+00 -8.484995445981E-01 4.223414130630E+02 -7.119997925062E+02 1.230614063036E+01 -3.484084308394E+00 -1.464271201534E+03 2.027749671470E+01 4.226236199887E+01 7.057345013631E+01 7.600531862578E-01 1.316651554947E+01 2.776146428049E+03
 -6.278735442545E-01 -5.096912512512E-01 4.677375689008E+00 -5.501259041571E-02 7.835461046197E-02 -6.349376638465E+00 3.765494832982E-01 5.349617710668E-01 1.036269002477E+00 -6.199705545852E-01 -7.563812949700E-01 -6.442411465081E-02 2.549886514811E-01 -2.960341790886E-01 8.919743797337E-01 4.303603769393E-01 -3.334868205784E-02 8.688604492084E+00 -4.264448678550E-01 5.410780213252E-01 1.381648110557E+00 -4.413351424651E-01 3.711036177522E-02 1.270081826818E-01 9.156934309584E-01 1.269697691560E+00 -1.136745483999E+00 1.293925333957E+00 6.781696518347E-01 -9.093384984130E-01 -4.269882517314E+01 3.024743050109E+00 -9.095844807457E+01 -2.937764973492E+00 2.229077333626E+00 -1.021231308648E+01 -2.460452173782E+01 1.336991488862E+01 -7.733313762765E+01 -1.450130306167E+01 1.886558247671E+01 -8.719680239862E+01 6.255227823840E-01 -6.754007527141E+00 6.048897050766E+00 7.104593041849E+01 -3.213827165602E+01 1.985266225715E+02
 6.226580903035E-02 -1.273148364529E+00 3.452740770557E-02 2.048762219715E-01 -1.114964509882E+00 -4.519866640290E-01 -8.201834148937E-01 -1.985167053571E-01 -1.759073384990E-01 -1.028296841804E+00 -9.491535609338E-01 2.963793322545E-02 1.102622905573E+00 6.028346480045E-01 -1.924198122589E-01 -5.506032136508E-02 1.413664221585E+00 1.255836130783E-01 -6.906607040552E-01 7.533036868667E-01 -2.248609970225E-01 3.437062202533E-01 -3.656063038150E-01 -6.209849879087E-02 1.363617497586E+00 -6.641746728351E-01 1.836010451613E-01 4.521626038586E-01 7.729302075691E-02 2.108241588982E-01 -3.920013140944E+00 -1.518631532369E+00 2.389689857229E-01 -1.438852618674E+03 -5.027158898896E+02 -9.728979991844E+01 -5.092282576702E-01 -6.695709262375E-01 -8.015809197413E-01 -1.321465943210E+03 4.536234885132E+02 -6.799195776327E+01 3.373806679528E+01 -1.204610711936E+01 -7.047045265064E-01 4.370310463321E+01 2.998141974517E+00 9.213768474641E-01 3.043748464750E+03
 -1.797285287611E-01 -3.738501258167E-01 1.026739255701E-02 -9.174791013917E-02 2.741227491209E-01 6.436639169438E-01 1.783459105354E+00 3.311291557945E-01 3.270439515244E-01 -3.057413026662E-01 -4.123688215014E-01 -6.607936321870E-03 -1.623824911676E+00 -1.382673294339E+00 2.469139673838E-01 1.870010321275E-01 -2.736185939590E-01 7.673745393078E-02 2.239540148866E-01 2.777265791914E-01 4.282567725885E-01 -2.201921358101E-01 3.065454200239E-01 3.890586809060E-02 -5.500041918780E-01 3.148010757701E+00 -2.738150492342E-01 1.614759734066E+00 1.093500122437E+00 -2.299064786987E-01 -3.893886155301E+00 -1.476366615742E+00 -3.740308658928E+00 -5.139607685611E+02 -8.454995058366E+02 -3.321202510993E+01 4.443716296553E-01 -4.928548075435E-01 9.538285816809E-01 4.407697130589E+02 -7.528158292278E+02 2.652802499368E+01 -7.766092075865E+01 1.444036657419E+00 -7.083118757309E+00 7.239107809033E+01 1.719154271573E-01 5.802831726791E+00 4.941476551335E+01 2.538537248001E+03
 -7.031029569396E-01 -8.940436519081E-01 6.636117184520E-02 -5.061271314582E-01 -4.172138279279E-02 7.041941753376E+00 8.758437005878E-01 7.184261174500E-01 2.686179472813E-01 -1.157262465297E+00 -1.166328400670E+00 -1.419010944171E-02 3.256855430143E-01 -5.984718880861E-01 3.926838886317E-01 6.534340352920E-01 6.782386835138E-01 5.947015442489E-02 -6.164747639864E-01 7.260873425596E-01 9.720451569661E-01 -1.771751290844E-01 -3.030283020139E-01 1.329471263337E-01 1.023214146385E+00 1.731030337333E+00 -6.644384827575E-01 1.941601090997E+00 8.446157448063E-01 -1.022886994707E+00 -6.234232485504E+00 -3.744582339347E+00 -1.866183678396E+01 -9.991349302572E+01 -2.748048470212E+01 -7.509485558307E+01 1.450893219059E-01 -8.510098682679E-01 7.369649645164E+00 -7.160640803721E+01 2.960543918934E+01 -8.933192666160E+01 7.625419883020E+00 -3.113027461546E+00 4.753607885583E+00 1.194613092934E+00 1.921948644454E+00 1.731612474821E+01 1.829622568461E+02 -2.041084393258E+00 1.744588177182E+02
 -8.355068682250E-02 -1.469311268909E-01 -1.570416780441E-01 -1.237339072728E+03 4.542769309696E+02 -1.845043719865E+01 2.333688623612E-02 5.772558791914E-02 -4.979437844110E-02 -1.624951570198E-01 -2.023646797528E-01 2.900766486548E-02 1.708648018734E-01 5.688817238928E-02 -3.641868437376E-02 4.061270021125E+01 -1.385382935592E-01 3.155538161131E-01 -1.404936797641E-01 1.097897869327E-01 5.630104905720E-02 -2.020973528987E+01 3.649012044499E+01 -7.154172829990E-04 1.816427996029E-01 -3.279291366382E-02 4.246959637925E-02 2.450003598465E-01 6.701627741852E-02 -2.503334573975E-02 -3.060966336552E-01 -7.222511377272E-01 -3.825281549554E-01 -5.746752696206E-02 1.363488789411E+00 -2.256597407864E-01 -1.553001609205E-01 -2.178870247007E-01 3.049052530578E-01 -1.118133731880E+03 -3.779789262557E+02 -3.771505893237E+01 -2.692906704086E+00 -1.599011058718E+00 -1.207060994067E+00 3.517644494437E+01 2.653016918271E-01 1.875180298207E+00 -1.869342881487E+01 -3.253455125970E+01 1.256050460490E-01 2.724057920900E+03
 -1.945683699144E-02 1.904162095747E-01 9.768673942070E-02 4.664567682080E+02 -7.559440423647E+02 1.193733898562E+00 -1.322405161195E+00 5.738593189392E-02 -2.515388496395E-02 2.038856711065E-02 6.095286271465E-02 -2.936675299619E-02 1.560674440052E+00 1.072780445218E+00 -3.708903173890E-02 6.653014298743E+01 -3.709413393125E-01 1.277275033903E+00 -3.458841094467E-01 -8.355159744631E-02 -8.349859393987E-03 -3.326722458344E+01 5.989564472955E+01 -3.718962658884E-01 8.548964835916E-01 -2.050295322591E+00 -5.867941410793E-02 -9.275246840850E-01 -6.684145894344E-01 -5.373530655564E-02 1.281333879267E+00 6.758523058109E-01 -7.212077739908E-01 -1.147920448110E+00 1.916717565301E+00 2.789223642776E-01 -2.022194708003E-01 3.933699196341E-01 -7.143875024933E-02 -3.778988643169E+02 -6.553659864617E+02 -1.579518839642E+01 -6.009984395465E+00 2.527044062095E-01 -4.336277118129E-01 -6.197030609935E+01 8.884664464577E-02 -1.888694283801E+00 3.191236439938E+01 6.018613846666E+01 1.409899064007E+00 -2.826418658617E+01 2.820884780230E+03
 4.027369268388E-01 -1.243471328185E-01 4.553577395854E+00 -1.738418288214E+01 8.580925932327E-01 -8.468225967898E+01 -7.639128223363E-02 -3.214257447958E-01 -4.586917494571E-01 2.470090873196E-03 2.692527393460E-01 4.727138069800E+00 -2.976451013347E-01 4.987117405756E-02 -4.500453219657E-01 -4.393781135767E-02 -1.526282655957E-01 8.742947966119E+00 3.885303787727E-01 -2.560621688499E-02 -6.620226220496E-01 -9.563333207347E-02 5.696317460978E-01 9.724462766097E+00 -5.178676778979E-01 -3.559522902850E-01 5.424228989058E-01 -5.205122768771E-01 -3.695572868546E-01 4.407043582309E-01 1.913155617787E+00 9.504463348235E-01 6.754641189475E+00 1.690145772020E+00 -2.187189979224E+00 4.960942395953E+00 5.438763160867E-01 4.777633098773E-01 -9.945074184624E+00 -3.793121989819E+01 -1.375098267622E+01 -7.833506809933E+01 -1.002138880744E+00 1.521731308873E+00 3.565347592966E+00 2.187282648190E+00 -7.210042701826E-01 4.804777614190E+00 -1.747516837967E+00 -3.452443698033E+00 6.294874733981E+00 6.292441180076E+01 4.514642628800E+01 1.901353325047E+02