#BIOSYM hessian 1
@Type: Hessian Update
@Units
 distance: 	A
 energy: 	Kcal/Mol
#header
@natom 67

#label
C1      C2      C3      C4      C5      C6      C7      C8      C9      C10     C11     C12     C13     C14     C15     C16     C17     C18     C19     C20     C21     C22     C23     H24     C25     C26     C27     C28     C29     C30     C31     C32     C33     C34     C35     C36     C37     C38     C39     C40     C41     C42     C43     C44     C45     C46     C47     C48     C49     O50     H51     H52     H53     H54     H55     H56     H57     H58     H59     H60     H61     H62     H63     H64     H65     H66     H67

#element
C  C  C  C  C  C  C  C  C  C  C  C  C  C  C  C  C  C  C  C  C  C  C  H  C  C  C  C  C  C  C  C  C  C  C  C  C  C  C  C  C  C  C  C  C  C  C  C  C  O  H  H  H  H  H  H  H  H  H  H  H  H  H  H  H  H  H 

#matrix
201
 2.773527392421E+03
 -2.378814892260E+01 2.804184934400E+03
 0.000000000000E+00 0.000000000000E+00 0.000000000000E+00
 3.906279762966E+01 6.739943202513E+01 0.000000000000E+00 2.806179043463E+03
 -5.685988239890E-01 -1.124485888284E-01 0.000000000000E+00 -1.975399024223E+01 2.776130183349E+03
 0.000000000000E+00 0.000000000000E+00 0.000000000000E+00 0.000000000000E+00 0.000000000000E+00 0.000000000000E+00
 -1.831177757651E+01 3.426899941334E+01 0.000000000000E+00 9.939668705513E-01 2.125984822106E+00 0.000000000000E+00 2.808202553198E+03
 -3.353576272128E+01 5.840573441559E+01 0.000000000000E+00 -1.609929329303E-01 -3.498707392101E-01 0.000000000000E+00 -1.941462168686E+01 2.825546288402E+03
 0.000000000000E+00 0.000000000000E+00 0.000000000000E+00 0.000000000000E+00 0.000000000000E+00 0.000000000000E+00 0.000000000000E+00 0.000000000000E+00 0.000000000000E+00
 3.821211967066E+01 -6.818402907107E+01 0.000000000000E+00 -2.064397024715E+01 3.277830223919E+01 0.000000000000E+00 5.067539691741E+01 6.932206747660E+01 0.000000000000E+00 2.784592075451E+03
 -2.256948721031E+00 1.138059977174E+00 0.000000000000E+00 -3.491708072084E+01 5.752444509199E+01 0.000000000000E+00 9.842479840754E+00 -1.621199854144E+00 0.000000000000E+00 -3.679341078955E+01 2.811432000856E+03
 0.000000000000E+00 0.000000000000E+00 0.000000000000E+00 0.000000000000E+00 0.000000000000E+00 0.000000000000E+00 0.000000000000E+00 0.000000000000E+00 0.000000000000E+00 0.000000000000E+00 0.000000000000E+00 0.000000000000E+00
 -1.183979060028E+00 2.964380511028E-01 0.000000000000E+00 -1.108212759187E+00 -1.667607560941E+00 0.000000000000E+00 4.980152581188E+01 -7.628669134733E+01 0.000000000000E+00 -3.074543833344E+01 3.027037643515E+01 0.000000000000E+00 2.680324252237E+03
 6.884862772418E-01 1.423203221213E-01 0.000000000000E+00 2.174780091702E-01 1.145311464956E+00 0.000000000000E+00 -3.169813604690E+00 9.781950119178E-02 0.000000000000E+00 -3.057362316985E+01 6.765873850444E+01 0.000000000000E+00 -2.449652703441E+02 2.905898092964E+03
 0.000000000000E+00 0.000000000000E+00 0.000000000000E+00 0.000000000000E+00 0.000000000000E+00 0.000000000000E+00 0.000000000000E+00 0.000000000000E+00 0.000000000000E+00 0.000000000000E+00 0.000000000000E+00 0.000000000000E+00 0.000000000000E+00 0.000000000000E+00 0.000000000000E+00
 -1.231272515345E+03 4.439649042582E+02 0.000000000000E+00 -4.662825877787E+02 -5.177713967949E+00 0.000000000000E+00 -3.094317678333E-02 2.030604120287E-02 0.000000000000E+00 -1.807456768000E-01 -3.506821211707E-02 0.000000000000E+00 1.691598434610E-01 8.357245317858E-02 0.000000000000E+00 2.820357392514E+03
 4.389293028995E+02 -7.349261026193E+02 0.000000000000E+00 -4.663351668639E+00 -1.436447541650E+03 0.000000000000E+00 -1.623060266244E-01 2.213311093184E-02 0.000000000000E+00 -5.858553492501E-01 5.232858884281E-01 0.000000000000E+00 1.732648812531E-01 2.102359751456E-02 0.000000000000E+00 2.305900902965E-01 2.781581916054E+03
 0.000000000000E+00 0.000000000000E+00 0.000000000000E+00 0.000000000000E+00 0.000000000000E+00 0.000000000000E+00 0.000000000000E+00 0.000000000000E+00 0.000000000000E+00 0.000000000000E+00 0.000000000000E+00 0.000000000000E+00 0.000000000000E+00 0.000000000000E+00 0.000000000000E+00 0.000000000000E+00 0.000000000000E+00 0.000000000000E+00
 -1.185545399875E+03 -4.123736515636E+02 0.000000000000E+00 -3.084338681103E-01 -1.002828698174E+00 0.000000000000E+00 -1.242654913200E+03 4.406477177509E+02 0.000000000000E+00 -4.849952914495E+02 -9.710240082749E+00 0.000000000000E+00 -2.311754776866E+00 1.066868065459E+00 0.000000000000E+00 -1.929405866280E+01 -3.270093617635E+01 0.000000000000E+00 2.792260217044E+03
 -4.117946624295E+02 -6.996717420372E+02 0.000000000000E+00 3.864959641952E-01 1.599911535258E+00 0.000000000000E+00 4.363710971762E+02 -7.408733316347E+02 0.000000000000E+00 -9.995292162763E-02 -1.504097562275E+03 0.000000000000E+00 6.421490823856E+00 -3.012301869327E+00 0.000000000000E+00 3.418113715715E+01 5.772964346277E+01 0.000000000000E+00 -2.206470240453E+01 2.829896757217E+03
 0.000000000000E+00 0.000000000000E+00 0.000000000000E+00 0.000000000000E+00 0.000000000000E+00 0.000000000000E+00 0.000000000000E+00 0.000000000000E+00 0.000000000000E+00 0.000000000000E+00 0.000000000000E+00 0.000000000000E+00 0.000000000000E+00 0.000000000000E+00 0.000000000000E+00 0.000000000000E+00 0.000000000000E+00 0.000000000000E+00 0.000000000000E+00 0.000000000000E+00 0.000000000000E+00
 6.239844985931E-01 -1.753835101077E-01 0.000000000000E+00 -1.229082990262E+03 -4.233890311750E+02 0.000000000000E+00 -3.217036145185E+00 6.480972430245E-01 0.000000000000E+00 -1.233721989099E+03 4.419993729766E+02 0.000000000000E+00 3.361731266411E+00 -1.441700625902E+00 0.000000000000E+00 3.796258058426E+01 -2.224492311350E-01 0.000000000000E+00 4.119859390813E+01 -2.985135348772E+00 0.000000000000E+00 2.831860782736E+03
 7.684819108898E-01 -5.292555417268E-02 0.000000000000E+00 -4.262054318102E+02 -7.133944099448E+02 0.000000000000E+00 -5.183500214426E+00 8.885390126267E-01 0.000000000000E+00 4.426880549456E+02 -7.263343603368E+02 0.000000000000E+00 4.489384778889E+00 -2.553256686289E+00 0.000000000000E+00 -6.725584796843E+01 1.878219866825E-01 0.000000000000E+00 7.230734367768E+01 -4.767281270771E+00 0.000000000000E+00 2.275119082542E+00 2.820370910743E+03
 0.000000000000E+00 0.000000000000E+00 0.000000000000E+00 0.000000000000E+00 0.000000000000E+00 0.000000000000E+00 0.000000000000E+00 0.000000000000E+00 0.000000000000E+00 0.000000000000E+00 0.000000000000E+00 0.000000000000E+00 0.000000000000E+00 0.000000000000E+00 0.000000000000E+00 0.000000000000E+00 0.000000000000E+00 0.000000000000E+00 0.000000000000E+00 0.000000000000E+00 0.000000000000E+00 0.000000000000E+00 0.000000000000E+00 0.000000000000E+00
 -9.674850252945E-01 1.243620279195E-01 0.000000000000E+00 -7.711043006671E-01 -1.766850821000E+00 0.000000000000E+00 -1.210566613852E+03 -4.163255012307E+02 0.000000000000E+00 -7.805498721537E+00 -8.781059237230E+00 0.000000000000E+00 -5.321530619775E+02 1.473241551088E+01 0.000000000000E+00 2.125754038836E-02 1.113303903796E-01 0.000000000000E+00 -2.184175701483E+01 -2.787395747522E+01 0.000000000000E+00 2.436843883999E+00 4.205540530498E+00 0.000000000000E+00 2.806047117077E+03
 -4.469288662904E-01 1.091635257206E-01 0.000000000000E+00 -1.931941913321E-01 -8.148528561351E-01 0.000000000000E+00 -4.215550000116E+02 -7.153288038117E+02 0.000000000000E+00 -3.727283279501E+00 -3.647732735981E+00 0.000000000000E+00 9.575128814415E+00 -1.653101626536E+03 0.000000000000E+00 -2.709777193802E-02 -5.444106934263E-02 0.000000000000E+00 3.488477661647E+01 6.160559894350E+01 0.000000000000E+00 7.592661771227E-01 1.809398074166E+00 0.000000000000E+00 -2.688545058165E+01 2.988777692779E+03
 0.000000000000E+00 0.000000000000E+00 0.000000000000E+00 0.000000000000E+00 0.000000000000E+00 0.000000000000E+00 0.000000000000E+00 0.000000000000E+00 0.000000000000E+00 0.000000000000E+00 0.000000000000E+00 0.000000000000E+00 0.000000000000E+00 0.000000000000E+00 0.000000000000E+00 0.000000000000E+00 0.000000000000E+00 0.000000000000E+00 0.000000000000E+00 0.000000000000E+00 0.000000000000E+00 0.000000000000E+00 0.000000000000E+00 0.000000000000E+00 0.000000000000E+00 0.000000000000E+00 0.000000000000E+00
 3.682160776247E+00 8.836419447767E-02 0.000000000000E+00 2.907330002589E+00 7.157692293553E+00 0.000000000000E+00 -2.689897895786E+01 4.843299385573E+00 0.000000000000E+00 -1.159289092601E+03 -3.814608030758E+02 0.000000000000E+00 -1.321901639551E+03 4.891579039676E+02 0.000000000000E+00 -1.843448038436E-01 5.902920765903E-03 0.000000000000E+00 4.781283350502E+01 -2.497809960333E+01 0.000000000000E+00 -3.087927060079E+01 -4.961908951633E+01 0.000000000000E+00 7.218322079931E+01 1.125990832998E+01 0.000000000000E+00 2.816576464033E+03
 2.573840505342E+00 -5.326597719315E-01 0.000000000000E+00 1.774148345988E+00 4.452245837984E+00 0.000000000000E+00 -1.509807343345E+01 2.045990216432E+00 0.000000000000E+00 -3.880700230239E+02 -6.783487084657E+02 0.000000000000E+00 5.146075566990E+02 -8.462580844097E+02 0.000000000000E+00 -2.098005561838E-01 -1.490478251906E-04 0.000000000000E+00 -6.483436025935E+01 -1.214642716439E+01 0.000000000000E+00 2.845218657248E+01 4.801658501652E+01 0.000000000000E+00 9.494341981819E+01 7.301315087129E+00 0.000000000000E+00 -1.723827942407E+02 2.769568843698E+03
 0.000000000000E+00 0.000000000000E+00 0.000000000000E+00 0.000000000000E+00 0.000000000000E+00 0.000000000000E+00 0.000000000000E+00 0.000000000000E+00 0.000000000000E+00 0.000000000000E+00 0.000000000000E+00 0.000000000000E+00 0.000000000000E+00 0.000000000000E+00 0.000000000000E+00 0.000000000000E+00 0.000000000000E+00 0.000000000000E+00 0.000000000000E+00 0.000000000000E+00 0.000000000000E+00 0.000000000000E+00 0.000000000000E+00 0.000000000000E+00 0.000000000000E+00 0.000000000000E+00 0.000000000000E+00 0.000000000000E+00 0.000000000000E+00 0.000000000000E+00
 -1.850316113130E-01 3.846425239607E-02 0.000000000000E+00 -1.952631550583E-01 -3.012169032870E-01 0.000000000000E+00 1.200131906181E+00 -1.971268780687E-01 0.000000000000E+00 -1.434737670668E+00 -1.368217885238E+00 0.000000000000E+00 -8.880219462494E-01 5.111053445175E-01 0.000000000000E+00 7.870004055024E-03 3.281825643798E-02 0.000000000000E+00 -3.472590313418E-01 1.018173827606E+00 0.000000000000E+00 4.691400818854E-01 6.829579566743E-01 0.000000000000E+00 -9.930961437706E-01 -3.511471523216E-01 0.000000000000E+00 3.686226175470E+00 2.103430835528E+00 0.000000000000E+00 2.811043462188E+03
 -3.237396657745E-02 -1.352301713727E-02 0.000000000000E+00 5.622428883984E-02 -1.195009121051E-01 0.000000000000E+00 2.477883906994E-01 -3.288933801756E-02 0.000000000000E+00 -2.486908152120E-01 -4.533536811547E-01 0.000000000000E+00 -2.570325466567E-01 1.843415117669E-01 0.000000000000E+00 -2.505329978792E-02 -5.207488412196E-02 0.000000000000E+00 -1.140098271700E-01 2.315798945846E-01 0.000000000000E+00 1.439766227114E-01 1.452201214496E-01 0.000000000000E+00 -1.848725020439E-01 -1.014446948084E-01 0.000000000000E+00 7.256886653483E-01 5.423691624468E-01 0.000000000000E+00 1.882635557712E+00 2.800039955042E+03
 0.000000000000E+00 0.000000000000E+00 0.000000000000E+00 0.000000000000E+00 0.000000000000E+00 0.000000000000E+00 0.000000000000E+00 0.000000000000E+00 0.000000000000E+00 0.000000000000E+00 0.000000000000E+00 0.000000000000E+00 0.000000000000E+00 0.000000000000E+00 0.000000000000E+00 0.000000000000E+00 0.000000000000E+00 0.000000000000E+00 0.000000000000E+00 0.000000000000E+00 0.000000000000E+00 0.000000000000E+00 0.000000000000E+00 0.000000000000E+00 0.000000000000E+00 0.000000000000E+00 0.000000000000E+00 0.000000000000E+00 0.000000000000E+00 0.000000000000E+00 0.000000000000E+00 0.000000000000E+00 0.000000000000E+00
 -8.127805036719E-02 2.262202666136E-02 0.000000000000E+00 -2.459524180691E-02 -9.106599450413E-02 0.000000000000E+00 4.787871252743E-01 -1.137472518659E-01 0.000000000000E+00 -4.710208494447E-01 -4.132337269123E-01 0.000000000000E+00 -5.384671183773E-01 1.475930947960E-01 0.000000000000E+00 -1.928868639323E-02 2.948931167566E-03 0.000000000000E+00 -1.012139193572E-01 3.566244159803E-01 0.000000000000E+00 6.173717218763E-02 3.391522072318E-01 0.000000000000E+00 -3.473304472322E-01 -7.530426284517E-02 0.000000000000E+00 1.770792873052E+00 7.689363440382E-01 0.000000000000E+00 4.133911557019E+01 7.184341220286E+01 0.000000000000E+00 2.779703577399E+03
 -7.279477584014E-02 3.483199718071E-03 0.000000000000E+00 -5.274001145005E-02 -1.068057879526E-01 0.000000000000E+00 4.365678307173E-01 -9.830255513340E-02 0.000000000000E+00 -4.617795396196E-01 -4.417304683100E-01 0.000000000000E+00 -4.348797314076E-01 1.470080707410E-01 0.000000000000E+00 -3.303473827197E-04 9.760186342302E-03 0.000000000000E+00 -8.427379345989E-02 3.559072089627E-01 0.000000000000E+00 1.040081205558E-01 2.848513398762E-01 0.000000000000E+00 -3.227095411334E-01 -6.632945480134E-02 0.000000000000E+00 1.473139517737E+00 6.810136041182E-01 0.000000000000E+00 -9.553332240271E-01 -1.618051910307E+00 0.000000000000E+00 2.781567606427E+02 2.860422116630E+03
 0.000000000000E+00 0.000000000000E+00 0.000000000000E+00 0.000000000000E+00 0.000000000000E+00 0.000000000000E+00 0.000000000000E+00 0.000000000000E+00 0.000000000000E+00 0.000000000000E+00 0.000000000000E+00 0.000000000000E+00 0.000000000000E+00 0.000000000000E+00 0.000000000000E+00 0.000000000000E+00 0.000000000000E+00 0.000000000000E+00 0.000000000000E+00 0.000000000000E+00 0.000000000000E+00 0.000000000000E+00 0.000000000000E+00 0.000000000000E+00 0.000000000000E+00 0.000000000000E+00 0.000000000000E+00 0.000000000000E+00 0.000000000000E+00 0.000000000000E+00 0.000000000000E+00 0.000000000000E+00 0.000000000000E+00 0.000000000000E+00 0.000000000000E+00 0.000000000000E+00
 -2.022200250258E+01 -3.454780335461E+01 0.000000000000E+00 3.911652971628E+01 -1.859356819832E-01 0.000000000000E+00 -9.853757397748E-02 1.255716136167E-02 0.000000000000E+00 1.798102285828E-01 -6.650131279241E-02 0.000000000000E+00 9.467655185064E-02 -1.379447547939E-01 0.000000000000E+00 -1.242340253899E+03 -4.350769801084E+02 0.000000000000E+00 5.281242755377E-03 -1.107772468115E-01 0.000000000000E+00 2.643291184816E-02 -1.026439223724E-01 0.000000000000E+00 9.016166837531E-02 9.505506261225E-02 0.000000000000E+00 -6.660573368711E-01 -2.435085501256E-01 0.000000000000E+00 -1.942730944666E+01 3.379320918455E+01 0.000000000000E+00 -2.869406467477E-03 1.298574260799E-02 0.000000000000E+00 2.774638362986E+03
 3.545176959868E+01 6.057405836819E+01 0.000000000000E+00 -6.788655255997E+01 2.091517981339E-01 0.000000000000E+00 1.423523798820E-01 -2.837696328549E-02 0.000000000000E+00 1.357789914898E-02 -1.396568967209E-01 0.000000000000E+00 -1.825662866761E-01 1.149242746659E-01 0.000000000000E+00 -4.394555085932E+02 -7.259396984112E+02 0.000000000000E+00 -6.243654218086E-02 1.411019340518E-01 0.000000000000E+00 -2.857330409099E-02 1.406375757829E-01 0.000000000000E+00 -6.506216724112E-02 1.362065757047E-02 0.000000000000E+00 4.637973368378E-01 1.189282026203E-01 0.000000000000E+00 -3.281274934676E+01 5.718903797121E+01 0.000000000000E+00 -1.843533327880E-02 -8.638547278815E-03 0.000000000000E+00 1.703748416460E+01 2.802764948702E+03
 0.000000000000E+00 0.000000000000E+00 0.000000000000E+00 0.000000000000E+00 0.000000000000E+00 0.000000000000E+00 0.000000000000E+00 0.000000000000E+00 0.000000000000E+00 0.000000000000E+00 0.000000000000E+00 0.000000000000E+00 0.000000000000E+00 0.000000000000E+00 0.000000000000E+00 0.000000000000E+00 0.000000000000E+00 0.000000000000E+00 0.000000000000E+00 0.000000000000E+00 0.000000000000E+00 0.000000000000E+00 0.000000000000E+00 0.000000000000E+00 0.000000000000E+00 0.000000000000E+00 0.000000000000E+00 0.000000000000E+00 0.000000000000E+00 0.000000000000E+00 0.000000000000E+00 0.000000000000E+00 0.000000000000E+00 0.000000000000E+00 0.000000000000E+00 0.000000000000E+00 0.000000000000E+00 0.000000000000E+00 0.000000000000E+00
 -4.867413621787E-01 6.953954709672E-02 0.000000000000E+00 -1.939170777135E+01 -3.237988886824E+01 0.000000000000E+00 3.063368370186E+00 -5.614103842998E-01 0.000000000000E+00 -3.598095419575E+00 -3.428537590809E+00 0.000000000000E+00 -2.692312055066E+00 1.404016517174E+00 0.000000000000E+00 4.988851958454E-02 9.717118642082E-02 0.000000000000E+00 -8.425929582566E-01 2.577425427038E+00 0.000000000000E+00 1.085595733256E+00 1.859692330546E+00 0.000000000000E+00 -2.435385975962E+00 -9.125058864861E-01 0.000000000000E+00 1.020697808305E+01 5.637267555184E+00 0.000000000000E+00 3.919292024755E+01 -6.920536337996E+01 0.000000000000E+00 -2.306873863345E+01 3.973149964746E+01 0.000000000000E+00 3.973881763520E+01 6.694819353739E+01 0.000000000000E+00 2.769889206733E+03
 -3.257668204010E-01 -1.131966076735E-02 0.000000000000E+00 3.320714763863E+01 5.534700626698E+01 0.000000000000E+00 2.256430284398E+00 -4.195270081726E-01 0.000000000000E+00 -2.555772280429E+00 -2.726677083420E+00 0.000000000000E+00 -2.034829935362E+00 1.086551360624E+00 0.000000000000E+00 -1.882025796593E-02 8.066276323718E-02 0.000000000000E+00 -7.148664269507E-01 1.888927524177E+00 0.000000000000E+00 8.698707085513E-01 1.328402152919E+00 0.000000000000E+00 -1.778342392520E+00 -6.920284529880E-01 0.000000000000E+00 7.349234377455E+00 4.272337286037E+00 0.000000000000E+00 -2.273782710115E-01 -1.129241195185E-01 0.000000000000E+00 -4.263807353791E+01 7.380747696364E+01 0.000000000000E+00 6.239850070251E-02 -7.785292741915E-02 0.000000000000E+00 -3.773700058469E+01 2.751825572675E+03
 0.000000000000E+00 0.000000000000E+00 0.000000000000E+00 0.000000000000E+00 0.000000000000E+00 0.000000000000E+00 0.000000000000E+00 0.000000000000E+00 0.000000000000E+00 0.000000000000E+00 0.000000000000E+00 0.000000000000E+00 0.000000000000E+00 0.000000000000E+00 0.000000000000E+00 0.000000000000E+00 0.000000000000E+00 0.000000000000E+00 0.000000000000E+00 0.000000000000E+00 0.000000000000E+00 0.000000000000E+00 0.000000000000E+00 0.000000000000E+00 0.000000000000E+00 0.000000000000E+00 0.000000000000E+00 0.000000000000E+00 0.000000000000E+00 0.000000000000E+00 0.000000000000E+00 0.000000000000E+00 0.000000000000E+00 0.000000000000E+00 0.000000000000E+00 0.000000000000E+00 0.000000000000E+00 0.000000000000E+00 0.000000000000E+00 0.000000000000E+00 0.000000000000E+00 0.000000000000E+00
 1.108381142751E-01 2.478280619448E-02 0.000000000000E+00 6.443415274701E-02 2.176659267758E-01 0.000000000000E+00 -9.583983810852E-01 1.890401711441E-01 0.000000000000E+00 9.850332642875E-01 1.133813237683E+00 0.000000000000E+00 8.806450122354E-01 -3.433321899632E-01 0.000000000000E+00 6.664149265837E-03 5.127978673209E-03 0.000000000000E+00 3.280859805719E-01 -7.806805802439E-01 0.000000000000E+00 -3.456507041709E-01 -5.573516007806E-01 0.000000000000E+00 7.512391913626E-01 2.267677089910E-01 0.000000000000E+00 -2.987965921387E+00 -1.643378938635E+00 0.000000000000E+00 -1.238568198343E+03 4.327629271484E+02 0.000000000000E+00 -5.070137731938E+02 -1.417916792126E+01 0.000000000000E+00 -3.960323897660E-02 3.156067275709E-02 0.000000000000E+00 3.702422144869E-01 2.874598253103E-01 0.000000000000E+00 2.843662960099E+03
 2.331133447091E-02 -2.203470166322E-03 0.000000000000E+00 2.372121901112E-02 6.257328856211E-02 0.000000000000E+00 -1.033094905709E-01 2.019370161028E-02 0.000000000000E+00 1.192192570950E-01 1.290320534908E-01 0.000000000000E+00 9.746316290768E-02 -4.213090946668E-02 0.000000000000E+00 4.298890239961E-03 3.865726056861E-03 0.000000000000E+00 -5.404317585707E-04 -9.803729512092E-02 0.000000000000E+00 -2.740892231758E-02 -6.882944569116E-02 0.000000000000E+00 7.051721842794E-02 2.554431747162E-03 0.000000000000E+00 -3.049919406440E-01 -1.280630610186E-01 0.000000000000E+00 4.349422175788E+02 -7.289587171768E+02 0.000000000000E+00 -2.425039887719E+01 -1.541379529068E+03 0.000000000000E+00 -1.002831308041E-02 -3.534339911900E-02 0.000000000000E+00 8.254350598810E-02 -1.164162731648E-02 0.000000000000E+00 2.976755950273E+01 2.893603943635E+03
 0.000000000000E+00 0.000000000000E+00 0.000000000000E+00 0.000000000000E+00 0.000000000000E+00 0.000000000000E+00 0.000000000000E+00 0.000000000000E+00 0.000000000000E+00 0.000000000000E+00 0.000000000000E+00 0.000000000000E+00 0.000000000000E+00 0.000000000000E+00 0.000000000000E+00 0.000000000000E+00 0.000000000000E+00 0.000000000000E+00 0.000000000000E+00 0.000000000000E+00 0.000000000000E+00 0.000000000000E+00 0.000000000000E+00 0.000000000000E+00 0.000000000000E+00 0.000000000000E+00 0.000000000000E+00 0.000000000000E+00 0.000000000000E+00 0.000000000000E+00 0.000000000000E+00 0.000000000000E+00 0.000000000000E+00 0.000000000000E+00 0.000000000000E+00 0.000000000000E+00 0.000000000000E+00 0.000000000000E+00 0.000000000000E+00 0.000000000000E+00 0.000000000000E+00 0.000000000000E+00 0.000000000000E+00 0.000000000000E+00 0.000000000000E+00
 8.113758210985E-02 -4.232157456012E-02 0.000000000000E+00 3.612204280263E-02 -2.726841711771E-02 0.000000000000E+00 -4.268355560845E-01 7.689966806984E-02 0.000000000000E+00 5.582120809567E-01 4.313015566356E-01 0.000000000000E+00 3.460614716878E-01 -1.786407353166E-01 0.000000000000E+00 -1.960867493948E+01 3.436018253411E+01 0.000000000000E+00 1.095807493003E-01 -3.080780249493E-01 0.000000000000E+00 -1.389594809295E-01 -2.446617738814E-01 0.000000000000E+00 3.631737338819E-01 1.233954776204E-01 0.000000000000E+00 -1.402861949025E+00 -7.888173230575E-01 0.000000000000E+00 -1.219052427157E+03 -4.271837367394E+02 0.000000000000E+00 -2.051632473205E-02 8.862383538737E-02 0.000000000000E+00 -1.176132019467E+03 4.223151809928E+02 0.000000000000E+00 -4.711938722144E+02 -6.543421463706E+00 0.000000000000E+00 -1.973936010631E+01 -3.428831221613E+01 0.000000000000E+00 2.751642642908E+03
 1.918267363967E-01 7.874802291978E-03 0.000000000000E+00 -1.849137601912E-01 4.805800175679E-01 0.000000000000E+00 -1.367238733028E+00 2.523648696898E-01 0.000000000000E+00 1.408799005823E+00 1.790859735527E+00 0.000000000000E+00 1.318428242398E+00 -6.603208138265E-01 0.000000000000E+00 -3.304515666043E+01 5.818723406312E+01 0.000000000000E+00 4.427494367288E-01 -1.151601314849E+00 0.000000000000E+00 -5.246632284714E-01 -8.533779316055E-01 0.000000000000E+00 1.033675003317E+00 3.773970494911E-01 0.000000000000E+00 -4.358804739678E+00 -2.527111012736E+00 0.000000000000E+00 -4.302614573726E+02 -7.167089940813E+02 0.000000000000E+00 2.152669340236E-01 1.347807716279E-01 0.000000000000E+00 4.235256727441E+02 -7.127447335637E+02 0.000000000000E+00 3.163493780824E+00 -1.494196232662E+03 0.000000000000E+00 3.404983213923E+01 5.973562308282E+01 0.000000000000E+00 4.514985357005E+00 2.805939338452E+03
 0.000000000000E+00 0.000000000000E+00 0.000000000000E+00 0.000000000000E+00 0.000000000000E+00 0.000000000000E+00 0.000000000000E+00 0.000000000000E+00 0.000000000000E+00 0.000000000000E+00 0.000000000000E+00 0.000000000000E+00 0.000000000000E+00 0.000000000000E+00 0.000000000000E+00 0.000000000000E+00 0.000000000000E+00 0.000000000000E+00 0.000000000000E+00 0.000000000000E+00 0.000000000000E+00 0.000000000000E+00 0.000000000000E+00 0.000000000000E+00 0.000000000000E+00 0.000000000000E+00 0.000000000000E+00 0.000000000000E+00 0.000000000000E+00 0.000000000000E+00 0.000000000000E+00 0.000000000000E+00 0.000000000000E+00 0.000000000000E+00 0.000000000000E+00 0.000000000000E+00 0.000000000000E+00 0.000000000000E+00 0.000000000000E+00 0.000000000000E+00 0.000000000000E+00 0.000000000000E+00 0.000000000000E+00 0.000000000000E+00 0.000000000000E+00 0.000000000000E+00 0.000000000000E+00 0.000000000000E+00
 2.915632416620E-01 -7.331855562781E-02 0.000000000000E+00 2.294241544110E-01 3.723860766369E-01 0.000000000000E+00 -1.799494870407E+00 3.139995032580E-01 0.000000000000E+00 2.157978378098E+00 1.967018061028E+00 0.000000000000E+00 1.430733534449E+00 -8.009629360750E-01 0.000000000000E+00 -7.880432846992E-03 -6.272949085116E-02 0.000000000000E+00 5.146940968986E-01 -1.506923476160E+00 0.000000000000E+00 -6.412855801245E-01 -1.041249548949E+00 0.000000000000E+00 1.491550697929E+00 5.105362066624E-01 0.000000000000E+00 -5.717542792851E+00 -3.149006133832E+00 0.000000000000E+00 1.940295039614E-01 6.959030757975E-02 0.000000000000E+00 -1.501210085582E+03 -5.302633777480E+02 0.000000000000E+00 7.902199571590E-03 4.029626032536E-02 0.000000000000E+00 -1.279470465143E+03 4.333165196378E+02 0.000000000000E+00 4.890617796677E+01 -1.063635112783E+00 0.000000000000E+00 3.891353289059E+01 -3.306185319172E-01 0.000000000000E+00 3.071219819902E+03
 5.354726571364E-02 -2.472732370987E-02 0.000000000000E+00 5.610859073980E-02 2.099163067712E-02 0.000000000000E+00 -3.588211401514E-01 4.043557657444E-02 0.000000000000E+00 4.967476787795E-01 4.396780851389E-01 0.000000000000E+00 1.838522900920E-01 -2.027768036349E-01 0.000000000000E+00 -9.170558364471E-03 -1.736546619743E-02 0.000000000000E+00 1.570769642073E-01 -3.019539543548E-01 0.000000000000E+00 -1.929834255537E-01 -1.611355654472E-01 0.000000000000E+00 3.456159060054E-01 1.631514934093E-01 0.000000000000E+00 -1.011070806157E+00 -7.190134847820E-01 0.000000000000E+00 -5.728634121687E-03 6.286274987560E-02 0.000000000000E+00 -5.401640239184E+02 -8.693624770230E+02 0.000000000000E+00 5.113849692132E-03 3.102922811378E-02 0.000000000000E+00 4.179415011388E+02 -7.214140680855E+02 0.000000000000E+00 -8.567004297251E+01 1.835999379767E+00 0.000000000000E+00 7.201518447783E+01 -1.533657038114E-01 0.000000000000E+00 9.259152085183E+01 2.538507491854E+03
 0.000000000000E+00 0.000000000000E+00 0.000000000000E+00 0.000000000000E+00 0.000000000000E+00 0.000000000000E+00 0.000000000000E+00 0.000000000000E+00 0.000000000000E+00 0.000000000000E+00 0.000000000000E+00 0.000000000000E+00 0.000000000000E+00 0.000000000000E+00 0.000000000000E+00 0.000000000000E+00 0.000000000000E+00 0.000000000000E+00 0.000000000000E+00 0.000000000000E+00 0.000000000000E+00 0.000000000000E+00 0.000000000000E+00 0.000000000000E+00 0.000000000000E+00 0.000000000000E+00 0.000000000000E+00 0.000000000000E+00 0.000000000000E+00 0.000000000000E+00 0.000000000000E+00 0.000000000000E+00 0.000000000000E+00 0.000000000000E+00 0.000000000000E+00 0.000000000000E+00 0.000000000000E+00 0.000000000000E+00 0.000000000000E+00 0.000000000000E+00 0.000000000000E+00 0.000000000000E+00 0.000000000000E+00 0.000000000000E+00 0.000000000000E+00 0.000000000000E+00 0.000000000000E+00 0.000000000000E+00 0.000000000000E+00 0.000000000000E+00 0.000000000000E+00
 4.983387997945E-01 -5.229795163014E-02 0.000000000000E+00 -1.231179979053E+03 4.453539460628E+02 0.000000000000E+00 -3.043219696730E+00 5.151369461138E-01 0.000000000000E+00 3.609180908684E+00 3.429825136536E+00 0.000000000000E+00 2.637671510355E+00 -1.427949875992E+00 0.000000000000E+00 4.014810456281E+01 -3.967441037694E-01 0.000000000000E+00 8.994126654741E-01 -2.617418517204E+00 0.000000000000E+00 -2.112359581948E+01 3.372171069092E+01 0.000000000000E+00 2.480155303969E+00 9.841847378354E-01 0.000000000000E+00 -1.010073369334E+01 -5.568847321178E+00 0.000000000000E+00 4.779870021405E-01 6.422221074712E-02 0.000000000000E+00 1.442153378350E-01 1.656092678110E-01 0.000000000000E+00 -2.803272986113E-01 1.134294900258E-04 0.000000000000E+00 -1.134756019266E+03 -3.900669784301E+02 0.000000000000E+00 -3.235880458980E-01 -6.431499231943E-02 0.000000000000E+00 3.671676052831E+01 -2.659950816275E-01 0.000000000000E+00 -1.826237968496E+01 -3.279271740806E+01 0.000000000000E+00 2.731367261950E+03
 4.951609230937E-01 6.949168376358E-02 0.000000000000E+00 4.545392216286E+02 -7.384787800584E+02 0.000000000000E+00 -3.397811126833E+00 7.256154393810E-01 0.000000000000E+00 3.760722802198E+00 4.119767059018E+00 0.000000000000E+00 3.371575755632E+00 -1.559307577473E+00 0.000000000000E+00 6.722892192516E+01 -5.320520903040E-01 0.000000000000E+00 1.046130689844E+00 -2.788833827319E+00 0.000000000000E+00 -3.506317832387E+01 5.786691952672E+01 0.000000000000E+00 2.604894538829E+00 8.856001860460E-01 0.000000000000E+00 -1.127819621497E+01 -6.377713970869E+00 0.000000000000E+00 4.893341212334E-01 2.183042477843E-01 0.000000000000E+00 5.581717000795E-02 1.437888214615E-01 0.000000000000E+00 -4.811724500564E-02 2.547512845809E-01 0.000000000000E+00 -3.879661210882E+02 -6.699771426050E+02 0.000000000000E+00 -2.664161392849E-01 -1.234170561186E-01 0.000000000000E+00 -6.485677726303E+01 -7.260891093160E-01 0.000000000000E+00 3.047095538663E+01 5.745089126829E+01 0.000000000000E+00 -8.418221797761E+00 2.813687632582E+03
 0.000000000000E+00 0.000000000000E+00 0.000000000000E+00 0.000000000000E+00 0.000000000000E+00 0.000000000000E+00 0.000000000000E+00 0.000000000000E+00 0.000000000000E+00 0.000000000000E+00 0.000000000000E+00 0.000000000000E+00 0.000000000000E+00 0.000000000000E+00 0.000000000000E+00 0.000000000000E+00 0.000000000000E+00 0.000000000000E+00 0.000000000000E+00 0.000000000000E+00 0.000000000000E+00 0.000000000000E+00 0.000000000000E+00 0.000000000000E+00 0.000000000000E+00 0.000000000000E+00 0.000000000000E+00 0.000000000000E+00 0.000000000000E+00 0.000000000000E+00 0.000000000000E+00 0.000000000000E+00 0.000000000000E+00 0.000000000000E+00 0.000000000000E+00 0.000000000000E+00 0.000000000000E+00 0.000000000000E+00 0.000000000000E+00 0.000000000000E+00 0.000000000000E+00 0.000000000000E+00 0.000000000000E+00 0.000000000000E+00 0.000000000000E+00 0.000000000000E+00 0.000000000000E+00 0.000000000000E+00 0.000000000000E+00 0.000000000000E+00 0.000000000000E+00 0.000000000000E+00 0.000000000000E+00 0.000000000000E+00