#BIOSYM hessian 1
@Type: Hessian Update
@Units
 distance: 	A
 energy: 	Kcal/Mol
#header
@natom 69

#label
C1      C2      C3      C4      C5      C6      C7      C8      C9      C10     C11     C12     C13     C14     C15     C16     C17     C18     C19     C20     C21     C22     C23     H24     C25     C26     C27     C28     C29     C30     C31     C32     C33     C34     C35     C36     C37     C38     C39     C40     C41     C42     C43     C44     C45     C46     C47     C48     C49     C50     H51     H52     H53     H54     H55     H56     H57     H58     H59     H60     H61     H62     H63     H64     H65     H66     O67     O68     H69

#element
C  C  C  C  C  C  C  C  C  C  C  C  C  C  C  C  C  C  C  C  C  C  C  H  C  C  C  C  C  C  C  C  C  C  C  C  C  C  C  C  C  C  C  C  C  C  C  C  C  C  H  H  H  H  H  H  H  H  H  H  H  H  H  H  H  H  O  O  H 

#matrix
207
 2.784332102058E+03
 -1.812137163203E+01 2.816527732108E+03
 0.000000000000E+00 0.000000000000E+00 0.000000000000E+00
 3.956507654701E+01 6.720168705482E+01 0.000000000000E+00 2.793057863400E+03
 -8.189999082985E-01 -9.281121324681E-01 0.000000000000E+00 -2.296724817324E+01 2.766815686553E+03
 0.000000000000E+00 0.000000000000E+00 0.000000000000E+00 0.000000000000E+00 0.000000000000E+00 0.000000000000E+00
 -1.995974529757E+01 3.497036558454E+01 0.000000000000E+00 -1.500155134543E-01 -2.283544556975E-01 0.000000000000E+00 2.805400384227E+03
 -3.357551225641E+01 5.825152032015E+01 0.000000000000E+00 1.869931816012E-03 8.095307573620E-02 0.000000000000E+00 -3.850479354031E+01 2.831260813795E+03
 0.000000000000E+00 0.000000000000E+00 0.000000000000E+00 0.000000000000E+00 0.000000000000E+00 0.000000000000E+00 0.000000000000E+00 0.000000000000E+00 0.000000000000E+00
 4.053066476090E+01 -6.839681242472E+01 0.000000000000E+00 -1.905184084678E+01 3.586624410313E+01 0.000000000000E+00 4.215829925218E+01 7.171417919683E+01 0.000000000000E+00 2.793345475128E+03
 -2.819471669256E-01 -3.128474591637E-03 0.000000000000E+00 -3.267400672355E+01 6.102022448191E+01 0.000000000000E+00 -1.416260681663E+00 -1.258415077352E+00 0.000000000000E+00 -3.873339586306E+00 2.812490748583E+03
 0.000000000000E+00 0.000000000000E+00 0.000000000000E+00 0.000000000000E+00 0.000000000000E+00 0.000000000000E+00 0.000000000000E+00 0.000000000000E+00 0.000000000000E+00 0.000000000000E+00 0.000000000000E+00 0.000000000000E+00
 2.780950080525E-01 9.537307777971E-03 0.000000000000E+00 -3.427656478819E-01 2.141953076217E-01 0.000000000000E+00 4.016380276808E+01 -7.438365092007E+01 0.000000000000E+00 -2.096444220768E+01 3.925139813827E+01 0.000000000000E+00 2.631676356256E+03
 -4.621832023793E-02 2.748559369304E-01 0.000000000000E+00 2.396954227912E-01 -3.741268213017E-01 0.000000000000E+00 -5.238661553324E-01 1.642140435547E+00 0.000000000000E+00 -3.503809844761E+01 6.211357381646E+01 0.000000000000E+00 -2.337003969445E+02 2.907713177016E+03
 0.000000000000E+00 0.000000000000E+00 0.000000000000E+00 0.000000000000E+00 0.000000000000E+00 0.000000000000E+00 0.000000000000E+00 0.000000000000E+00 0.000000000000E+00 0.000000000000E+00 0.000000000000E+00 0.000000000000E+00 0.000000000000E+00 0.000000000000E+00 0.000000000000E+00
 -1.231187972232E+03 4.464096592642E+02 0.000000000000E+00 -4.660977086706E+02 -1.231602973211E+01 0.000000000000E+00 8.528748366535E-02 -1.668065941101E-01 0.000000000000E+00 -7.508949833321E-01 -1.518985380504E+00 0.000000000000E+00 -7.671899176719E-02 1.936055349430E-01 0.000000000000E+00 2.828126588797E+03
 4.412119943257E+02 -7.408083934998E+02 0.000000000000E+00 -1.161423305325E+01 -1.432803001783E+03 0.000000000000E+00 2.761876717478E-01 1.100267231762E-01 0.000000000000E+00 -1.229919310533E+00 9.450237993745E-01 0.000000000000E+00 -3.438383020968E-01 -8.045138533742E-02 0.000000000000E+00 1.788435150717E+00 2.778996028999E+03
 0.000000000000E+00 0.000000000000E+00 0.000000000000E+00 0.000000000000E+00 0.000000000000E+00 0.000000000000E+00 0.000000000000E+00 0.000000000000E+00 0.000000000000E+00 0.000000000000E+00 0.000000000000E+00 0.000000000000E+00 0.000000000000E+00 0.000000000000E+00 0.000000000000E+00 0.000000000000E+00 0.000000000000E+00 0.000000000000E+00
 -1.194389584720E+03 -4.127985889714E+02 0.000000000000E+00 9.019454030800E-02 -3.933424687285E-01 0.000000000000E+00 -1.250677364902E+03 4.541458539628E+02 0.000000000000E+00 -4.815831483506E+02 -2.237871787354E+01 0.000000000000E+00 2.443547167391E-01 6.305936010737E-01 0.000000000000E+00 -1.939877926158E+01 -3.246238499778E+01 0.000000000000E+00 2.806731452723E+03
 -4.116241577978E+02 -6.989263249974E+02 0.000000000000E+00 -6.224186009379E-01 -5.171621159029E-01 0.000000000000E+00 4.561402147180E+02 -7.598972693863E+02 0.000000000000E+00 -2.299999374984E+01 -1.512302545874E+03 0.000000000000E+00 1.121614987310E+00 -4.674271289263E-01 0.000000000000E+00 3.518148005038E+01 5.789087368100E+01 0.000000000000E+00 -2.231870657267E+01 2.854364210808E+03
 0.000000000000E+00 0.000000000000E+00 0.000000000000E+00 0.000000000000E+00 0.000000000000E+00 0.000000000000E+00 0.000000000000E+00 0.000000000000E+00 0.000000000000E+00 0.000000000000E+00 0.000000000000E+00 0.000000000000E+00 0.000000000000E+00 0.000000000000E+00 0.000000000000E+00 0.000000000000E+00 0.000000000000E+00 0.000000000000E+00 0.000000000000E+00 0.000000000000E+00 0.000000000000E+00
 -1.330762620101E+00 1.182585307581E-01 0.000000000000E+00 -1.223817540775E+03 -4.176981495190E+02 0.000000000000E+00 -9.992079406651E-02 -9.781762482642E-03 0.000000000000E+00 -1.233435664337E+03 4.376605051239E+02 0.000000000000E+00 -6.724473147393E-02 1.578541816482E-01 0.000000000000E+00 3.752612255155E+01 3.032692211219E-01 0.000000000000E+00 4.025321624727E+01 -1.757734460029E+00 0.000000000000E+00 2.820065167011E+03
 3.432335930985E-02 1.168875840466E+00 0.000000000000E+00 -4.209643583487E+02 -7.032366666871E+02 0.000000000000E+00 6.908172816289E-01 4.039415248755E-01 0.000000000000E+00 4.341909225377E+02 -7.250362012382E+02 0.000000000000E+00 6.020313847452E-01 -6.410303216760E-01 0.000000000000E+00 -6.601419282217E+01 -2.314685076028E-01 0.000000000000E+00 6.951563939516E+01 -1.508728415633E+00 0.000000000000E+00 -4.881658222526E+00 2.794930567404E+03
 0.000000000000E+00 0.000000000000E+00 0.000000000000E+00 0.000000000000E+00 0.000000000000E+00 0.000000000000E+00 0.000000000000E+00 0.000000000000E+00 0.000000000000E+00 0.000000000000E+00 0.000000000000E+00 0.000000000000E+00 0.000000000000E+00 0.000000000000E+00 0.000000000000E+00 0.000000000000E+00 0.000000000000E+00 0.000000000000E+00 0.000000000000E+00 0.000000000000E+00 0.000000000000E+00 0.000000000000E+00 0.000000000000E+00 0.000000000000E+00
 1.621029097496E-01 1.507850015255E-01 0.000000000000E+00 3.944678433716E-01 -9.646216937444E-02 0.000000000000E+00 -1.200526443927E+03 -4.027745420059E+02 0.000000000000E+00 -1.987270109461E-01 -2.142956535117E-02 0.000000000000E+00 -5.204381614716E+02 -7.729019730142E+00 0.000000000000E+00 4.171781690220E-02 -5.660974484447E-02 0.000000000000E+00 -1.982315216192E+01 -3.363695115052E+01 0.000000000000E+00 2.900993585089E-01 -9.301387413952E-01 0.000000000000E+00 2.777042797006E+03
 -2.057466436072E-01 2.406526238797E-01 0.000000000000E+00 -8.217346428666E-02 -1.163297406137E-01 0.000000000000E+00 -4.120341395654E+02 -7.029267718420E+02 0.000000000000E+00 -1.224107046492E+00 -5.920384634136E-01 0.000000000000E+00 -8.841945903714E+00 -1.636707027334E+03 0.000000000000E+00 1.297667333046E-01 7.797775644085E-02 0.000000000000E+00 3.647878104701E+01 5.805077047181E+01 0.000000000000E+00 -2.828100470494E-02 1.094994363977E-01 0.000000000000E+00 -1.801653772026E+01 2.957841315871E+03
 0.000000000000E+00 0.000000000000E+00 0.000000000000E+00 0.000000000000E+00 0.000000000000E+00 0.000000000000E+00 0.000000000000E+00 0.000000000000E+00 0.000000000000E+00 0.000000000000E+00 0.000000000000E+00 0.000000000000E+00 0.000000000000E+00 0.000000000000E+00 0.000000000000E+00 0.000000000000E+00 0.000000000000E+00 0.000000000000E+00 0.000000000000E+00 0.000000000000E+00 0.000000000000E+00 0.000000000000E+00 0.000000000000E+00 0.000000000000E+00 0.000000000000E+00 0.000000000000E+00 0.000000000000E+00
 -3.009573305247E-01 6.438345013486E-01 0.000000000000E+00 1.050074624807E+00 -2.747901862824E-01 0.000000000000E+00 3.236923331567E+00 6.768679330408E-01 0.000000000000E+00 -1.195594641911E+03 -4.166458743941E+02 0.000000000000E+00 -1.307481944079E+03 5.068444931547E+02 0.000000000000E+00 9.830893400093E-02 2.828052310440E-01 0.000000000000E+00 3.788276725297E+01 -2.413273338360E+00 0.000000000000E+00 -1.921190249995E+01 -3.523920326333E+01 0.000000000000E+00 4.815014873179E+01 3.126462355354E-01 0.000000000000E+00 2.950923568550E+03
 -5.754848284934E-01 1.218309552710E+00 0.000000000000E+00 3.048339160615E+00 -2.396031927720E-01 0.000000000000E+00 2.139572993141E+00 9.706639162487E-02 0.000000000000E+00 -4.085430826724E+02 -6.855599691878E+02 0.000000000000E+00 5.041121963752E+02 -8.522303055187E+02 0.000000000000E+00 -3.490196134194E-01 5.715083447895E-01 0.000000000000E+00 -6.817999651078E+01 -3.860282407090E-01 0.000000000000E+00 3.020045578212E+01 5.371448737152E+01 0.000000000000E+00 7.850968148362E+01 -2.089365837315E-01 0.000000000000E+00 -1.322795791797E+02 2.823683694488E+03
 0.000000000000E+00 0.000000000000E+00 0.000000000000E+00 0.000000000000E+00 0.000000000000E+00 0.000000000000E+00 0.000000000000E+00 0.000000000000E+00 0.000000000000E+00 0.000000000000E+00 0.000000000000E+00 0.000000000000E+00 0.000000000000E+00 0.000000000000E+00 0.000000000000E+00 0.000000000000E+00 0.000000000000E+00 0.000000000000E+00 0.000000000000E+00 0.000000000000E+00 0.000000000000E+00 0.000000000000E+00 0.000000000000E+00 0.000000000000E+00 0.000000000000E+00 0.000000000000E+00 0.000000000000E+00 0.000000000000E+00 0.000000000000E+00 0.000000000000E+00
 3.827580049368E-02 6.681359965354E-02 0.000000000000E+00 -1.327616245083E-02 -3.051030593006E-03 0.000000000000E+00 -3.650773771145E-02 -3.756674561856E-02 0.000000000000E+00 5.213561202308E-04 -2.639952574392E-02 0.000000000000E+00 -6.087159388822E-02 1.832468289593E-02 0.000000000000E+00 -2.283493126812E-02 -6.190813409839E-02 0.000000000000E+00 3.996186177284E-02 2.016157087671E-02 0.000000000000E+00 6.279626337965E-04 -5.804658364830E-02 0.000000000000E+00 2.557508708186E-02 -4.384552709923E-02 0.000000000000E+00 8.658444838555E-02 4.858786059606E-02 0.000000000000E+00 2.810144026479E+03
 4.053603553868E-02 8.840851477530E-02 0.000000000000E+00 4.325847683784E-02 -4.856106473579E-03 0.000000000000E+00 2.939822239377E-02 -6.288570261238E-02 0.000000000000E+00 -1.448288371390E-01 -1.506562527101E-01 0.000000000000E+00 1.062933763000E-01 3.097254026810E-02 0.000000000000E+00 -4.450487857041E-02 -1.149623558879E-01 0.000000000000E+00 -1.655337610042E-02 1.761771934031E-01 0.000000000000E+00 1.611142550354E-01 4.625624982742E-02 0.000000000000E+00 1.351391901340E-01 2.615363951357E-02 0.000000000000E+00 -9.156692968799E-02 -7.735101719417E-02 0.000000000000E+00 1.950358946694E+00 2.800858989198E+03
 0.000000000000E+00 0.000000000000E+00 0.000000000000E+00 0.000000000000E+00 0.000000000000E+00 0.000000000000E+00 0.000000000000E+00 0.000000000000E+00 0.000000000000E+00 0.000000000000E+00 0.000000000000E+00 0.000000000000E+00 0.000000000000E+00 0.000000000000E+00 0.000000000000E+00 0.000000000000E+00 0.000000000000E+00 0.000000000000E+00 0.000000000000E+00 0.000000000000E+00 0.000000000000E+00 0.000000000000E+00 0.000000000000E+00 0.000000000000E+00 0.000000000000E+00 0.000000000000E+00 0.000000000000E+00 0.000000000000E+00 0.000000000000E+00 0.000000000000E+00 0.000000000000E+00 0.000000000000E+00 0.000000000000E+00
 1.990412104039E-02 -7.269593103359E-02 0.000000000000E+00 1.087975118795E-02 -3.869145401962E-03 0.000000000000E+00 -1.135517936163E-02 2.566070583602E-02 0.000000000000E+00 7.217856095127E-02 7.450093622956E-02 0.000000000000E+00 -3.932875987081E-04 -1.685904112408E-01 0.000000000000E+00 7.661053387889E-03 6.453509644695E-02 0.000000000000E+00 -4.072994079237E-02 -7.405437753291E-02 0.000000000000E+00 -6.538188751794E-02 -6.864596757477E-02 0.000000000000E+00 -1.095700091511E-01 2.202908758594E-02 0.000000000000E+00 9.447825852618E-02 5.603773436613E-01 0.000000000000E+00 4.187341285406E+01 7.156462612558E+01 0.000000000000E+00 2.784586935958E+03
 1.960710211720E-02 -3.167891177045E-02 0.000000000000E+00 -1.325697960675E-02 -1.492396464925E-02 0.000000000000E+00 9.729913546990E-03 -3.833455746065E-02 0.000000000000E+00 -1.182719807067E-01 -1.205490053679E-01 0.000000000000E+00 6.702954392214E-02 -1.236955312473E-01 0.000000000000E+00 8.965756858677E-03 -1.069360773130E-02 0.000000000000E+00 -4.565924901300E-02 8.520587746120E-02 0.000000000000E+00 1.050395312574E-01 -1.567902626323E-02 0.000000000000E+00 1.741978755488E-02 6.340989706358E-02 0.000000000000E+00 1.209030007972E-01 8.241409105235E-01 0.000000000000E+00 -1.123330378379E+00 -1.995399420775E+00 0.000000000000E+00 2.781029363810E+02 2.857428420444E+03
 0.000000000000E+00 0.000000000000E+00 0.000000000000E+00 0.000000000000E+00 0.000000000000E+00 0.000000000000E+00 0.000000000000E+00 0.000000000000E+00 0.000000000000E+00 0.000000000000E+00 0.000000000000E+00 0.000000000000E+00 0.000000000000E+00 0.000000000000E+00 0.000000000000E+00 0.000000000000E+00 0.000000000000E+00 0.000000000000E+00 0.000000000000E+00 0.000000000000E+00 0.000000000000E+00 0.000000000000E+00 0.000000000000E+00 0.000000000000E+00 0.000000000000E+00 0.000000000000E+00 0.000000000000E+00 0.000000000000E+00 0.000000000000E+00 0.000000000000E+00 0.000000000000E+00 0.000000000000E+00 0.000000000000E+00 0.000000000000E+00 0.000000000000E+00 0.000000000000E+00
 -2.015695690088E+01 -3.379875857952E+01 0.000000000000E+00 3.851084669761E+01 -4.513757505645E-01 0.000000000000E+00 -9.353958691043E-02 -1.107118888610E-01 0.000000000000E+00 -1.718655836140E-01 2.634450941322E-01 0.000000000000E+00 1.453502507517E-01 -4.956515103220E-02 0.000000000000E+00 -1.249930005903E+03 -4.322151980253E+02 0.000000000000E+00 1.928169700261E-01 2.094693255912E-01 0.000000000000E+00 2.873574313127E-01 -3.290499735548E-01 0.000000000000E+00 6.693365334569E-02 -1.035934456947E-01 0.000000000000E+00 -4.024632638184E-01 -7.867286965970E-01 0.000000000000E+00 -1.944500055790E+01 3.436269836957E+01 0.000000000000E+00 -2.039988544274E-03 1.253324219677E-02 0.000000000000E+00 2.777697781080E+03
 3.637429640663E+01 6.121209505804E+01 0.000000000000E+00 -6.809722462157E+01 7.691426199748E-01 0.000000000000E+00 -3.571096918361E-03 -1.728991468420E-01 0.000000000000E+00 3.145647136220E-02 -1.957668617257E-01 0.000000000000E+00 2.235269330792E-01 -1.606124280992E-02 0.000000000000E+00 -4.367064524152E+02 -7.217004250119E+02 0.000000000000E+00 -8.666786425332E-02 4.133236118131E-01 0.000000000000E+00 4.867515464232E-02 2.084000629547E-01 0.000000000000E+00 1.358774992790E-01 7.959353170818E-02 0.000000000000E+00 -2.992331337905E-01 -3.678890764749E-01 0.000000000000E+00 -3.219925895038E+01 5.713297087733E+01 0.000000000000E+00 -2.710467628323E-02 -2.361877953296E-02 0.000000000000E+00 1.839656167275E+01 2.806355179363E+03
 0.000000000000E+00 0.000000000000E+00 0.000000000000E+00 0.000000000000E+00 0.000000000000E+00 0.000000000000E+00 0.000000000000E+00 0.000000000000E+00 0.000000000000E+00 0.000000000000E+00 0.000000000000E+00 0.000000000000E+00 0.000000000000E+00 0.000000000000E+00 0.000000000000E+00 0.000000000000E+00 0.000000000000E+00 0.000000000000E+00 0.000000000000E+00 0.000000000000E+00 0.000000000000E+00 0.000000000000E+00 0.000000000000E+00 0.000000000000E+00 0.000000000000E+00 0.000000000000E+00 0.000000000000E+00 0.000000000000E+00 0.000000000000E+00 0.000000000000E+00 0.000000000000E+00 0.000000000000E+00 0.000000000000E+00 0.000000000000E+00 0.000000000000E+00 0.000000000000E+00 0.000000000000E+00 0.000000000000E+00 0.000000000000E+00
 -5.554776314776E-02 -1.970603062312E-01 0.000000000000E+00 -1.903345770757E+01 -3.116420328974E+01 0.000000000000E+00 -2.370141619232E-02 -3.239665449720E-02 0.000000000000E+00 -8.824433828344E-02 -3.269517168819E-01 0.000000000000E+00 -6.959024965962E-02 -2.905186412561E-01 0.000000000000E+00 1.388615961710E-01 1.020153232091E-01 0.000000000000E+00 -1.254112382821E-01 -2.709145867381E-02 0.000000000000E+00 3.068472685863E-02 3.011706139256E-02 0.000000000000E+00 -4.223677115238E-02 1.110754998525E-01 0.000000000000E+00 8.159838825073E-01 2.707199150587E+00 0.000000000000E+00 3.923208183366E+01 -6.949898288383E+01 0.000000000000E+00 -2.302199209986E+01 4.058688695475E+01 0.000000000000E+00 4.024280580809E+01 6.683413193966E+01 0.000000000000E+00 2.771822638047E+03
 1.641837460386E-01 -1.145139323608E-01 0.000000000000E+00 3.376389801390E+01 5.574176828992E+01 0.000000000000E+00 -1.232593230855E-01 -1.110086308770E-01 0.000000000000E+00 7.019517469375E-02 -4.805684014136E-02 0.000000000000E+00 7.536525433518E-02 -1.094906205367E-01 0.000000000000E+00 -9.344920546658E-02 5.191367908929E-02 0.000000000000E+00 -6.325268005250E-02 6.097227330167E-02 0.000000000000E+00 1.547026338971E-01 -2.264674020957E-01 0.000000000000E+00 1.834101993962E-01 4.875781294382E-02 0.000000000000E+00 3.739184765207E-01 1.649383844157E+00 0.000000000000E+00 -1.927370049817E-01 3.897778451460E-01 0.000000000000E+00 -4.186638166395E+01 7.396146781173E+01 0.000000000000E+00 -1.699737183580E-01 -3.949546292525E-01 0.000000000000E+00 -3.838366801294E+01 2.757267162784E+03
 0.000000000000E+00 0.000000000000E+00 0.000000000000E+00 0.000000000000E+00 0.000000000000E+00 0.000000000000E+00 0.000000000000E+00 0.000000000000E+00 0.000000000000E+00 0.000000000000E+00 0.000000000000E+00 0.000000000000E+00 0.000000000000E+00 0.000000000000E+00 0.000000000000E+00 0.000000000000E+00 0.000000000000E+00 0.000000000000E+00 0.000000000000E+00 0.000000000000E+00 0.000000000000E+00 0.000000000000E+00 0.000000000000E+00 0.000000000000E+00 0.000000000000E+00 0.000000000000E+00 0.000000000000E+00 0.000000000000E+00 0.000000000000E+00 0.000000000000E+00 0.000000000000E+00 0.000000000000E+00 0.000000000000E+00 0.000000000000E+00 0.000000000000E+00 0.000000000000E+00 0.000000000000E+00 0.000000000000E+00 0.000000000000E+00 0.000000000000E+00 0.000000000000E+00 0.000000000000E+00
 -4.341832435205E-02 1.286779359977E-02 0.000000000000E+00 -4.935438548645E-02 2.395109334215E-04 0.000000000000E+00 -1.010480263998E-02 -1.848990023812E-02 0.000000000000E+00 -6.951857547427E-02 -1.079444127810E-01 0.000000000000E+00 1.347185716958E-03 1.578511567657E-01 0.000000000000E+00 8.806912382264E-03 -2.083727677174E-02 0.000000000000E+00 2.164873551213E-02 5.752335979161E-02 0.000000000000E+00 6.119265071629E-02 1.458621798472E-01 0.000000000000E+00 9.270854281890E-02 3.052792223568E-02 0.000000000000E+00 4.923615094857E-02 7.131767988626E-02 0.000000000000E+00 -1.231179809048E+03 4.358090270682E+02 0.000000000000E+00 -5.072539148248E+02 -2.054531763186E+01 0.000000000000E+00 6.369602565854E-03 1.679663970592E-02 0.000000000000E+00 2.654871909214E-02 6.482211855726E-02 0.000000000000E+00 2.842925660577E+03
 -4.548670992344E-03 -2.655089383035E-02 0.000000000000E+00 -9.378124499035E-03 3.459872548904E-02 0.000000000000E+00 -4.849009474441E-02 5.049038919959E-02 0.000000000000E+00 2.471229108832E-01 1.675802847414E-01 0.000000000000E+00 -1.288415200555E-01 1.231947728682E-01 0.000000000000E+00 -4.271628919317E-03 6.245487301943E-02 0.000000000000E+00 3.074097092655E-02 -1.821087226017E-01 0.000000000000E+00 -1.901914494882E-01 -2.217950483232E-02 0.000000000000E+00 -3.628111929703E-02 -6.721226589602E-02 0.000000000000E+00 -4.551680016580E-04 -5.072932188722E-01 0.000000000000E+00 4.379337338205E+02 -7.351665849046E+02 0.000000000000E+00 -3.052052605125E+01 -1.541301260276E+03 0.000000000000E+00 -1.115194842076E-02 3.250637415618E-03 0.000000000000E+00 1.053695384354E-01 -1.070203752812E-02 0.000000000000E+00 2.939128415367E+01 2.892918918814E+03
 0.000000000000E+00 0.000000000000E+00 0.000000000000E+00 0.000000000000E+00 0.000000000000E+00 0.000000000000E+00 0.000000000000E+00 0.000000000000E+00 0.000000000000E+00 0.000000000000E+00 0.000000000000E+00 0.000000000000E+00 0.000000000000E+00 0.000000000000E+00 0.000000000000E+00 0.000000000000E+00 0.000000000000E+00 0.000000000000E+00 0.000000000000E+00 0.000000000000E+00 0.000000000000E+00 0.000000000000E+00 0.000000000000E+00 0.000000000000E+00 0.000000000000E+00 0.000000000000E+00 0.000000000000E+00 0.000000000000E+00 0.000000000000E+00 0.000000000000E+00 0.000000000000E+00 0.000000000000E+00 0.000000000000E+00 0.000000000000E+00 0.000000000000E+00 0.000000000000E+00 0.000000000000E+00 0.000000000000E+00 0.000000000000E+00 0.000000000000E+00 0.000000000000E+00 0.000000000000E+00 0.000000000000E+00 0.000000000000E+00 0.000000000000E+00
 -4.525322801322E-02 7.354034693337E-03 0.000000000000E+00 -2.835353705400E-03 -3.027032404201E-02 0.000000000000E+00 6.553595955987E-02 -3.721205808081E-02 0.000000000000E+00 -1.792282900329E-01 -4.099341773891E-01 0.000000000000E+00 8.067323861306E-02 1.672794838900E-02 0.000000000000E+00 -1.964332166213E+01 3.494500547923E+01 0.000000000000E+00 -8.203890141376E-02 2.075843818650E-01 0.000000000000E+00 1.218283448663E-01 4.023121357704E-01 0.000000000000E+00 6.003390530706E-02 1.072075644272E-01 0.000000000000E+00 2.055523208275E-01 5.623426077063E-01 0.000000000000E+00 -1.225179495782E+03 -4.234259500487E+02 0.000000000000E+00 -4.237742359577E-02 1.909423170096E-02 0.000000000000E+00 -1.170570044809E+03 4.252340176267E+02 0.000000000000E+00 -4.722777754307E+02 -1.281396235398E+01 0.000000000000E+00 -1.965548373810E+01 -3.366788577242E+01 0.000000000000E+00 2.752723537917E+03
 -1.706172888331E-01 -1.065337906783E-01 0.000000000000E+00 -1.056975660335E-01 3.080614542627E-03 0.000000000000E+00 7.815135787923E-02 2.007797044068E-01 0.000000000000E+00 1.898047186529E-01 4.111197703867E-01 0.000000000000E+00 -1.783546822863E-01 -3.057856312922E-02 0.000000000000E+00 -3.246171622510E+01 5.837668228904E+01 0.000000000000E+00 4.853230373516E-02 -3.747001158667E-01 0.000000000000E+00 -3.799247091664E-01 -9.313741284105E-02 0.000000000000E+00 -3.286598681746E-01 -8.337533299219E-02 0.000000000000E+00 -2.772827629292E-01 -1.325186392177E+00 0.000000000000E+00 -4.267127594164E+02 -7.101897240041E+02 0.000000000000E+00 8.987879767435E-02 8.402185409646E-02 0.000000000000E+00 4.265521089407E+02 -7.195909094939E+02 0.000000000000E+00 -3.361846857548E+00 -1.497218147393E+03 0.000000000000E+00 3.477451670732E+01 5.958184160065E+01 0.000000000000E+00 3.940827200584E+00 2.809126455857E+03
 0.000000000000E+00 0.000000000000E+00 0.000000000000E+00 0.000000000000E+00 0.000000000000E+00 0.000000000000E+00 0.000000000000E+00 0.000000000000E+00 0.000000000000E+00 0.000000000000E+00 0.000000000000E+00 0.000000000000E+00 0.000000000000E+00 0.000000000000E+00 0.000000000000E+00 0.000000000000E+00 0.000000000000E+00 0.000000000000E+00 0.000000000000E+00 0.000000000000E+00 0.000000000000E+00 0.000000000000E+00 0.000000000000E+00 0.000000000000E+00 0.000000000000E+00 0.000000000000E+00 0.000000000000E+00 0.000000000000E+00 0.000000000000E+00 0.000000000000E+00 0.000000000000E+00 0.000000000000E+00 0.000000000000E+00 0.000000000000E+00 0.000000000000E+00 0.000000000000E+00 0.000000000000E+00 0.000000000000E+00 0.000000000000E+00 0.000000000000E+00 0.000000000000E+00 0.000000000000E+00 0.000000000000E+00 0.000000000000E+00 0.000000000000E+00 0.000000000000E+00 0.000000000000E+00 0.000000000000E+00
 -1.401268442275E-02 1.107947737444E-01 0.000000000000E+00 6.932360972185E-03 1.708453387514E-02 0.000000000000E+00 1.450887423260E-02 1.711130326505E-02 0.000000000000E+00 2.614221398378E-02 1.211576593188E-01 0.000000000000E+00 -2.647674339470E-02 2.120335453229E-01 0.000000000000E+00 -1.869225814028E-02 -6.191288671986E-02 0.000000000000E+00 8.785259942008E-02 -1.416012870824E-03 0.000000000000E+00 -2.963596432374E-02 -8.578292111404E-03 0.000000000000E+00 5.743314770744E-02 -9.424112960399E-02 0.000000000000E+00 -3.035308348100E-01 -1.484943684166E+00 0.000000000000E+00 7.683301115521E-03 1.284758232811E-02 0.000000000000E+00 -1.509484533602E+03 -5.260672757691E+02 0.000000000000E+00 -1.066319350373E-02 2.789075885090E-02 0.000000000000E+00 -1.274551727673E+03 4.372861915169E+02 0.000000000000E+00 4.847402954245E+01 -1.385393006598E+00 0.000000000000E+00 3.959743990804E+01 -2.856859847328E-01 0.000000000000E+00 3.074335432608E+03
 -1.056811503151E-02 2.496687155845E-02 0.000000000000E+00 -1.744681678417E-02 -1.035841335014E-03 0.000000000000E+00 1.276329314889E-02 -4.361615627643E-02 0.000000000000E+00 -9.205316314784E-02 -1.592749170925E-01 0.000000000000E+00 1.416455307348E-02 5.506053077967E-02 0.000000000000E+00 6.101534278225E-03 -4.281385580906E-02 0.000000000000E+00 -1.783828995131E-03 1.038961509975E-01 0.000000000000E+00 9.434623120475E-02 7.262861200419E-02 0.000000000000E+00 8.448032018484E-02 8.795279527574E-03 0.000000000000E+00 6.645624028469E-02 6.494838220725E-02 0.000000000000E+00 -3.526006034076E-02 -6.225165183785E-03 0.000000000000E+00 -5.359502166982E+02 -8.624949669050E+02 0.000000000000E+00 1.159538743098E-02 1.323634790528E-02 0.000000000000E+00 4.220618959963E+02 -7.284538136893E+02 0.000000000000E+00 -8.603694977198E+01 2.439084757899E+00 0.000000000000E+00 7.186680054267E+01 -4.610974604530E-01 0.000000000000E+00 8.767157336906E+01 2.538494933825E+03
 0.000000000000E+00 0.000000000000E+00 0.000000000000E+00 0.000000000000E+00 0.000000000000E+00 0.000000000000E+00 0.000000000000E+00 0.000000000000E+00 0.000000000000E+00 0.000000000000E+00 0.000000000000E+00 0.000000000000E+00 0.000000000000E+00 0.000000000000E+00 0.000000000000E+00 0.000000000000E+00 0.000000000000E+00 0.000000000000E+00 0.000000000000E+00 0.000000000000E+00 0.000000000000E+00 0.000000000000E+00 0.000000000000E+00 0.000000000000E+00 0.000000000000E+00 0.000000000000E+00 0.000000000000E+00 0.000000000000E+00 0.000000000000E+00 0.000000000000E+00 0.000000000000E+00 0.000000000000E+00 0.000000000000E+00 0.000000000000E+00 0.000000000000E+00 0.000000000000E+00 0.000000000000E+00 0.000000000000E+00 0.000000000000E+00 0.000000000000E+00 0.000000000000E+00 0.000000000000E+00 0.000000000000E+00 0.000000000000E+00 0.000000000000E+00 0.000000000000E+00 0.000000000000E+00 0.000000000000E+00 0.000000000000E+00 0.000000000000E+00 0.000000000000E+00
 1.713141258804E-01 2.091471160847E-01 0.000000000000E+00 -1.223809178473E+03 4.485578331269E+02 0.000000000000E+00 1.016037834525E-01 -2.450451473270E-03 0.000000000000E+00 -1.926116960742E-01 7.218311083205E-01 0.000000000000E+00 3.279570813263E-01 -6.573999505239E-02 0.000000000000E+00 4.049356590717E+01 -6.315503840176E-01 0.000000000000E+00 1.338443267328E-01 8.269700150878E-02 0.000000000000E+00 -1.988970023781E+01 3.492049458495E+01 0.000000000000E+00 -1.940778195102E-02 2.401320861443E-02 0.000000000000E+00 -9.331495127477E-01 -2.563344705260E+00 0.000000000000E+00 5.974917093913E-03 -3.682635589759E-02 0.000000000000E+00 1.177491857776E-02 3.020700278595E-02 0.000000000000E+00 -1.247196301248E-01 -5.666694610572E-02 0.000000000000E+00 -1.141648077177E+03 -3.877470564720E+02 0.000000000000E+00 3.329069738107E-02 -2.431271105987E-02 0.000000000000E+00 3.651582772123E+01 -1.463231608359E-01 0.000000000000E+00 -1.775266626027E+01 -3.220403665924E+01 0.000000000000E+00 2.730369409240E+03
 -1.368112613273E-01 2.110209055562E-01 0.000000000000E+00 4.576915895212E+02 -7.447208744252E+02 0.000000000000E+00 6.163323178421E-02 1.741177255519E-01 0.000000000000E+00 -1.343865339027E-01 -1.074021719157E-01 0.000000000000E+00 -3.324395104991E-01 6.505901822349E-01 0.000000000000E+00 6.685874513076E+01 -9.254796601510E-01 0.000000000000E+00 2.406399711810E-01 -1.211187402100E-01 0.000000000000E+00 -3.386929833109E+01 6.005924419108E+01 0.000000000000E+00 -1.188153297398E-01 -2.560373647123E-01 0.000000000000E+00 -3.747404486332E-01 -3.202046604011E+00 0.000000000000E+00 -3.346532568801E-04 8.458545477704E-02 0.000000000000E+00 2.091547009181E-02 1.316335382096E-01 0.000000000000E+00 1.021553115060E-02 1.117709346455E-01 0.000000000000E+00 -3.861596335547E+02 -6.653675579759E+02 0.000000000000E+00 1.232171091178E-02 -1.789376277177E-01 0.000000000000E+00 -6.511493553339E+01 1.416484205061E-01 0.000000000000E+00 3.154871066787E+01 5.759991269899E+01 0.000000000000E+00 -1.460763730430E+01 2.819473463781E+03
 0.000000000000E+00 0.000000000000E+00 0.000000000000E+00 0.000000000000E+00 0.000000000000E+00 0.000000000000E+00 0.000000000000E+00 0.000000000000E+00 0.000000000000E+00 0.000000000000E+00 0.000000000000E+00 0.000000000000E+00 0.000000000000E+00 0.000000000000E+00 0.000000000000E+00 0.000000000000E+00 0.000000000000E+00 0.000000000000E+00 0.000000000000E+00 0.000000000000E+00 0.000000000000E+00 0.000000000000E+00 0.000000000000E+00 0.000000000000E+00 0.000000000000E+00 0.000000000000E+00 0.000000000000E+00 0.000000000000E+00 0.000000000000E+00 0.000000000000E+00 0.000000000000E+00 0.000000000000E+00 0.000000000000E+00 0.000000000000E+00 0.000000000000E+00 0.000000000000E+00 0.000000000000E+00 0.000000000000E+00 0.000000000000E+00 0.000000000000E+00 0.000000000000E+00 0.000000000000E+00 0.000000000000E+00 0.000000000000E+00 0.000000000000E+00 0.000000000000E+00 0.000000000000E+00 0.000000000000E+00 0.000000000000E+00 0.000000000000E+00 0.000000000000E+00 0.000000000000E+00 0.000000000000E+00 0.000000000000E+00