#BIOSYM hessian 1
@Type: Hessian Update
@Units
 distance: 	A
 energy: 	Kcal/Mol
#header
@natom 67

#label
C1      C2      C3      C4      C5      C6      C7      C8      C9      C10     C11     C12     C13     C14     C15     C16     C17     C18     C19     C20     C21     C22     C23     H24     C25     C26     C27     C28     C29     C30     C31     C32     C33     C34     C35     C36     C37     C38     C39     C40     C41     C42     C43     C44     C45     C46     C47     C48     C49     H50     H51     H52     H53     H54     H55     O56     H57     H58     H59     H60     H61     H62     H63     H64     H65     H66     H67

#element
C  C  C  C  C  C  C  C  C  C  C  C  C  C  C  C  C  C  C  C  C  C  C  H  C  C  C  C  C  C  C  C  C  C  C  C  C  C  C  C  C  C  C  C  C  C  C  C  C  H  H  H  H  H  H  O  H  H  H  H  H  H  H  H  H  H  H 

#matrix
201
 2.783791742035E+03
 -2.456109611555E+01 2.819635392572E+03
 0.000000000000E+00 0.000000000000E+00 0.000000000000E+00
 3.998424636392E+01 6.704326975991E+01 0.000000000000E+00 2.791787896181E+03
 -2.788853684299E-01 -6.446600200841E-01 0.000000000000E+00 -2.375584229363E+01 2.767928785329E+03
 0.000000000000E+00 0.000000000000E+00 0.000000000000E+00 0.000000000000E+00 0.000000000000E+00 0.000000000000E+00
 -1.892130848707E+01 3.529530539275E+01 0.000000000000E+00 5.021640487350E-01 -9.981867178736E-01 0.000000000000E+00 2.807882134411E+03
 -3.332519962514E+01 5.973049201106E+01 0.000000000000E+00 5.343069426342E-02 -5.437770113385E-02 0.000000000000E+00 -3.566156280586E+01 2.820917591896E+03
 0.000000000000E+00 0.000000000000E+00 0.000000000000E+00 0.000000000000E+00 0.000000000000E+00 0.000000000000E+00 0.000000000000E+00 0.000000000000E+00 0.000000000000E+00
 3.894859427566E+01 -6.820237645844E+01 0.000000000000E+00 -1.920045563464E+01 3.466412615841E+01 0.000000000000E+00 3.879361859479E+01 7.177680897296E+01 0.000000000000E+00 2.786812399029E+03
 -7.694922838683E-02 1.052387687738E+00 0.000000000000E+00 -3.261712186126E+01 5.880546924509E+01 0.000000000000E+00 -3.371711682150E+00 -1.139057457521E+00 0.000000000000E+00 -2.331630039070E+01 2.831868765352E+03
 0.000000000000E+00 0.000000000000E+00 0.000000000000E+00 0.000000000000E+00 0.000000000000E+00 0.000000000000E+00 0.000000000000E+00 0.000000000000E+00 0.000000000000E+00 0.000000000000E+00 0.000000000000E+00 0.000000000000E+00
 3.440706987931E-01 3.731562075995E-01 0.000000000000E+00 2.441390567872E-01 -3.283279998192E-01 0.000000000000E+00 3.876348139017E+01 -7.230034844856E+01 0.000000000000E+00 -2.298266306677E+01 3.718301063524E+01 0.000000000000E+00 2.632904085363E+03
 -1.416380415586E+00 -1.380485353215E+00 0.000000000000E+00 -1.091962714333E+00 2.071110307800E+00 0.000000000000E+00 1.399232959499E+01 7.334002536876E-02 0.000000000000E+00 -2.630667656647E+01 6.962086430283E+01 0.000000000000E+00 -2.156733691829E+02 2.869602516996E+03
 0.000000000000E+00 0.000000000000E+00 0.000000000000E+00 0.000000000000E+00 0.000000000000E+00 0.000000000000E+00 0.000000000000E+00 0.000000000000E+00 0.000000000000E+00 0.000000000000E+00 0.000000000000E+00 0.000000000000E+00 0.000000000000E+00 0.000000000000E+00 0.000000000000E+00
 -1.227455708061E+03 4.489767519408E+02 0.000000000000E+00 -4.649545477980E+02 -1.166664735720E+01 0.000000000000E+00 -6.695756083195E-01 -3.056635046330E-01 0.000000000000E+00 -4.764291586883E-01 -3.155975545385E-01 0.000000000000E+00 -4.668264495223E-01 1.610268753073E+00 0.000000000000E+00 2.822228768940E+03
 4.435642771244E+02 -7.442664937575E+02 0.000000000000E+00 -1.050256686778E+01 -1.433242588885E+03 0.000000000000E+00 -1.434190836237E-01 -2.980048068628E-01 0.000000000000E+00 -6.325512631827E-02 -1.305755900350E-01 0.000000000000E+00 -3.824233539078E-01 6.897943740563E-01 0.000000000000E+00 -1.677084109517E+00 2.782416323504E+03
 0.000000000000E+00 0.000000000000E+00 0.000000000000E+00 0.000000000000E+00 0.000000000000E+00 0.000000000000E+00 0.000000000000E+00 0.000000000000E+00 0.000000000000E+00 0.000000000000E+00 0.000000000000E+00 0.000000000000E+00 0.000000000000E+00 0.000000000000E+00 0.000000000000E+00 0.000000000000E+00 0.000000000000E+00 0.000000000000E+00
 -1.195800990539E+03 -4.108310664171E+02 0.000000000000E+00 -8.232344682828E-02 2.331965557164E-01 0.000000000000E+00 -1.259489551265E+03 4.498933607728E+02 0.000000000000E+00 -4.848989294493E+02 -1.394414135270E+01 0.000000000000E+00 7.155528306309E-01 -2.207685362238E+00 0.000000000000E+00 -1.956930602833E+01 -3.289603780900E+01 0.000000000000E+00 2.820506891250E+03
 -4.104668626567E+02 -6.990573689986E+02 0.000000000000E+00 1.151834673557E-01 1.484318176217E-02 0.000000000000E+00 4.508875750914E+02 -7.526173136922E+02 0.000000000000E+00 -1.696112048315E+01 -1.513335839782E+03 0.000000000000E+00 -5.372378260484E-01 1.748349072188E+00 0.000000000000E+00 3.465916150547E+01 5.825638956238E+01 0.000000000000E+00 -2.705468705983E+01 2.846183743130E+03
 0.000000000000E+00 0.000000000000E+00 0.000000000000E+00 0.000000000000E+00 0.000000000000E+00 0.000000000000E+00 0.000000000000E+00 0.000000000000E+00 0.000000000000E+00 0.000000000000E+00 0.000000000000E+00 0.000000000000E+00 0.000000000000E+00 0.000000000000E+00 0.000000000000E+00 0.000000000000E+00 0.000000000000E+00 0.000000000000E+00 0.000000000000E+00 0.000000000000E+00 0.000000000000E+00
 -1.805715061398E-01 -1.317707793767E-01 0.000000000000E+00 -1.224252742183E+03 -4.176149738130E+02 0.000000000000E+00 1.606634434408E+00 2.627738159945E-01 0.000000000000E+00 -1.221258061391E+03 4.435362344815E+02 0.000000000000E+00 8.340179045097E-01 -4.038156899708E+00 0.000000000000E+00 3.713747204842E+01 -3.712439404114E-01 0.000000000000E+00 4.169611070775E+01 -3.126365586997E-01 0.000000000000E+00 2.807622287733E+03
 3.582384939866E-02 2.619549499165E-02 0.000000000000E+00 -4.203043625594E+02 -7.020246835212E+02 0.000000000000E+00 -2.511558170729E-01 -8.498669386423E-02 0.000000000000E+00 4.407528219779E+02 -7.403247660093E+02 0.000000000000E+00 -1.923428619185E-01 7.613432208911E-01 0.000000000000E+00 -6.686789282869E+01 7.273190664506E-01 0.000000000000E+00 7.004190836389E+01 -8.628589142081E-01 0.000000000000E+00 -1.549401413595E+00 2.808342124150E+03
 0.000000000000E+00 0.000000000000E+00 0.000000000000E+00 0.000000000000E+00 0.000000000000E+00 0.000000000000E+00 0.000000000000E+00 0.000000000000E+00 0.000000000000E+00 0.000000000000E+00 0.000000000000E+00 0.000000000000E+00 0.000000000000E+00 0.000000000000E+00 0.000000000000E+00 0.000000000000E+00 0.000000000000E+00 0.000000000000E+00 0.000000000000E+00 0.000000000000E+00 0.000000000000E+00 0.000000000000E+00 0.000000000000E+00 0.000000000000E+00
 -2.674847147701E+00 -1.875945321184E+00 0.000000000000E+00 -1.657586625550E+00 3.032048809522E+00 0.000000000000E+00 -1.180574115945E+03 -4.040123136890E+02 0.000000000000E+00 1.229998142006E+01 9.682725327450E+00 0.000000000000E+00 -5.140381436477E+02 -4.026775185106E+01 0.000000000000E+00 2.569707408733E+00 8.409041644003E-01 0.000000000000E+00 -2.252156836048E+01 -3.208557034273E+01 0.000000000000E+00 -5.744593315439E+00 9.879856736936E-01 0.000000000000E+00 2.711597990216E+03
 2.344489874879E+00 2.020060730394E+00 0.000000000000E+00 1.860081939965E+00 -3.685734840270E+00 0.000000000000E+00 -4.368216105338E+02 -7.037215021119E+02 0.000000000000E+00 -1.554708452236E+01 -1.113573803190E+01 0.000000000000E+00 -6.018818506383E+00 -1.579424858954E+03 0.000000000000E+00 -2.495306833789E+00 -5.463130994963E-01 0.000000000000E+00 3.815927817669E+01 5.747753027455E+01 0.000000000000E+00 6.758247047881E+00 -1.216991489414E+00 0.000000000000E+00 4.872782581655E+01 2.865084119364E+03
 0.000000000000E+00 0.000000000000E+00 0.000000000000E+00 0.000000000000E+00 0.000000000000E+00 0.000000000000E+00 0.000000000000E+00 0.000000000000E+00 0.000000000000E+00 0.000000000000E+00 0.000000000000E+00 0.000000000000E+00 0.000000000000E+00 0.000000000000E+00 0.000000000000E+00 0.000000000000E+00 0.000000000000E+00 0.000000000000E+00 0.000000000000E+00 0.000000000000E+00 0.000000000000E+00 0.000000000000E+00 0.000000000000E+00 0.000000000000E+00 0.000000000000E+00 0.000000000000E+00 0.000000000000E+00
 -7.713488395730E-01 -7.449704126621E-01 0.000000000000E+00 -6.152507596645E-01 1.100525118347E+00 0.000000000000E+00 6.982294055796E+00 2.309424277884E-01 0.000000000000E+00 -1.194650897806E+03 -4.108607996686E+02 0.000000000000E+00 -1.329006829118E+03 4.801045008292E+02 0.000000000000E+00 9.008227135106E-01 3.360482841184E-01 0.000000000000E+00 3.711444766044E+01 4.249166220382E-01 0.000000000000E+00 -2.145788826386E+01 -3.214270018473E+01 0.000000000000E+00 2.657975954563E+01 2.972640953999E+01 0.000000000000E+00 2.873335454755E+03
 2.522100630044E-01 3.204983302904E-01 0.000000000000E+00 1.654439301282E-01 -3.711290590948E-01 0.000000000000E+00 -2.393870420699E+00 5.963396784195E-01 0.000000000000E+00 -4.072529472772E+02 -7.013817477144E+02 0.000000000000E+00 4.946181980026E+02 -8.200144135880E+02 0.000000000000E+00 -2.838505691733E-01 -2.239286534452E-01 0.000000000000E+00 -6.832317316233E+01 3.522631035882E-01 0.000000000000E+00 3.534922217522E+01 5.810291535957E+01 0.000000000000E+00 8.830889098968E+01 -9.935006673738E+00 0.000000000000E+00 -9.488631952238E+01 2.845469772343E+03
 0.000000000000E+00 0.000000000000E+00 0.000000000000E+00 0.000000000000E+00 0.000000000000E+00 0.000000000000E+00 0.000000000000E+00 0.000000000000E+00 0.000000000000E+00 0.000000000000E+00 0.000000000000E+00 0.000000000000E+00 0.000000000000E+00 0.000000000000E+00 0.000000000000E+00 0.000000000000E+00 0.000000000000E+00 0.000000000000E+00 0.000000000000E+00 0.000000000000E+00 0.000000000000E+00 0.000000000000E+00 0.000000000000E+00 0.000000000000E+00 0.000000000000E+00 0.000000000000E+00 0.000000000000E+00 0.000000000000E+00 0.000000000000E+00 0.000000000000E+00
 2.157131714816E-02 -1.316761366003E-02 0.000000000000E+00 1.450385821162E-02 -7.127774089944E-03 0.000000000000E+00 -2.646981332187E-02 -7.691382433338E-02 0.000000000000E+00 -1.020681894764E-02 -1.325538229503E-02 0.000000000000E+00 -2.412962685425E-02 -8.544737629767E-03 0.000000000000E+00 -7.923819303731E-03 2.221953882124E-02 0.000000000000E+00 -3.725088213577E-02 4.315173626342E-02 0.000000000000E+00 -6.076670688132E-04 1.072310009628E-03 0.000000000000E+00 1.287030068805E-01 4.967146003272E-02 0.000000000000E+00 1.669388869430E-02 -9.079782761028E-03 0.000000000000E+00 2.809783812698E+03
 -3.621235786527E-03 2.749844145089E-04 0.000000000000E+00 -1.158449857833E-02 9.674366684814E-03 0.000000000000E+00 2.119164291807E-02 4.265308661399E-02 0.000000000000E+00 1.341097364099E-03 1.071239978987E-02 0.000000000000E+00 2.064168093020E-02 1.263870225044E-03 0.000000000000E+00 2.030354166970E-03 -2.173954813606E-03 0.000000000000E+00 2.401541270779E-03 -2.481249707454E-02 0.000000000000E+00 4.828860649187E-03 -5.938279697517E-03 0.000000000000E+00 -3.411061502371E-02 -5.747473696436E-02 0.000000000000E+00 4.657384324918E-03 7.540907479964E-03 0.000000000000E+00 2.233349072667E+00 2.800759597109E+03
 0.000000000000E+00 0.000000000000E+00 0.000000000000E+00 0.000000000000E+00 0.000000000000E+00 0.000000000000E+00 0.000000000000E+00 0.000000000000E+00 0.000000000000E+00 0.000000000000E+00 0.000000000000E+00 0.000000000000E+00 0.000000000000E+00 0.000000000000E+00 0.000000000000E+00 0.000000000000E+00 0.000000000000E+00 0.000000000000E+00 0.000000000000E+00 0.000000000000E+00 0.000000000000E+00 0.000000000000E+00 0.000000000000E+00 0.000000000000E+00 0.000000000000E+00 0.000000000000E+00 0.000000000000E+00 0.000000000000E+00 0.000000000000E+00 0.000000000000E+00 0.000000000000E+00 0.000000000000E+00 0.000000000000E+00
 -2.010686313620E-02 -1.025520599976E-02 0.000000000000E+00 -9.693948137167E-03 1.376544723989E-02 0.000000000000E+00 1.168623257752E-01 1.680270525921E-02 0.000000000000E+00 9.331636736038E-02 6.220715689811E-02 0.000000000000E+00 7.019345449869E-02 -3.389297511692E-01 0.000000000000E+00 1.718895296312E-02 -5.968914731285E-04 0.000000000000E+00 -1.154109850825E-02 2.071427080997E-02 0.000000000000E+00 -4.211583978329E-02 9.898595933987E-03 0.000000000000E+00 -4.661695236402E-01 5.793324446939E-01 0.000000000000E+00 -1.824544814335E-01 5.664553641148E-02 0.000000000000E+00 4.180523129438E+01 7.160266202468E+01 0.000000000000E+00 2.784465637835E+03
 -1.145665635850E-02 -5.760011005708E-03 0.000000000000E+00 -7.193484662224E-03 1.537988533832E-02 0.000000000000E+00 7.395515667092E-02 5.107394603021E-02 0.000000000000E+00 5.527776415066E-02 3.867184917368E-02 0.000000000000E+00 6.055890504677E-02 -1.698609581451E-01 0.000000000000E+00 8.241434790959E-03 -3.699609277902E-03 0.000000000000E+00 1.676968896918E-03 -7.672101202779E-03 0.000000000000E+00 -1.841287829320E-02 -6.199449794752E-04 0.000000000000E+00 -2.770169956746E-01 2.299216346435E-01 0.000000000000E+00 -9.497632664993E-02 3.724925268185E-02 0.000000000000E+00 -1.138767349194E+00 -1.955631059502E+00 0.000000000000E+00 2.784319239200E+02 2.857347883218E+03
 0.000000000000E+00 0.000000000000E+00 0.000000000000E+00 0.000000000000E+00 0.000000000000E+00 0.000000000000E+00 0.000000000000E+00 0.000000000000E+00 0.000000000000E+00 0.000000000000E+00 0.000000000000E+00 0.000000000000E+00 0.000000000000E+00 0.000000000000E+00 0.000000000000E+00 0.000000000000E+00 0.000000000000E+00 0.000000000000E+00 0.000000000000E+00 0.000000000000E+00 0.000000000000E+00 0.000000000000E+00 0.000000000000E+00 0.000000000000E+00 0.000000000000E+00 0.000000000000E+00 0.000000000000E+00 0.000000000000E+00 0.000000000000E+00 0.000000000000E+00 0.000000000000E+00 0.000000000000E+00 0.000000000000E+00 0.000000000000E+00 0.000000000000E+00 0.000000000000E+00
 -2.028084692311E+01 -3.411700465728E+01 0.000000000000E+00 3.825522863459E+01 -4.821758818571E-01 0.000000000000E+00 -3.358910201124E-01 -9.574755774587E-02 0.000000000000E+00 -2.295384466670E-01 -1.571101490221E-01 0.000000000000E+00 -1.831261813372E-01 8.584928079130E-01 0.000000000000E+00 -1.249233951395E+03 -4.322393846438E+02 0.000000000000E+00 3.015378781970E-02 -3.040062548141E-02 0.000000000000E+00 1.051739853387E-01 -3.055438857626E-02 0.000000000000E+00 1.186979708113E+00 -1.417208544166E+00 0.000000000000E+00 4.588186282580E-01 -1.714248152798E-01 0.000000000000E+00 -1.942045634640E+01 3.431241147738E+01 0.000000000000E+00 8.310657296738E-03 4.464517674906E-04 0.000000000000E+00 2.776552012529E+03
 3.609331933975E+01 6.064265264142E+01 0.000000000000E+00 -6.811816837248E+01 8.080655707207E-01 0.000000000000E+00 1.336207805143E-01 3.193705790069E-01 0.000000000000E+00 1.182951416719E-01 9.274569977235E-02 0.000000000000E+00 2.908795283809E-01 -4.261884848722E-01 0.000000000000E+00 -4.369532076540E+02 -7.214360441211E+02 0.000000000000E+00 5.520299276879E-02 -6.929528962359E-02 0.000000000000E+00 -1.664761485159E-02 -7.329642531459E-03 0.000000000000E+00 -7.124836347556E-01 2.447131871877E-01 0.000000000000E+00 -2.412179173004E-01 1.567746607806E-01 0.000000000000E+00 -3.228515605430E+01 5.702404279188E+01 0.000000000000E+00 8.223410574105E-03 6.384090749217E-04 0.000000000000E+00 1.760915177447E+01 2.806543161605E+03
 0.000000000000E+00 0.000000000000E+00 0.000000000000E+00 0.000000000000E+00 0.000000000000E+00 0.000000000000E+00 0.000000000000E+00 0.000000000000E+00 0.000000000000E+00 0.000000000000E+00 0.000000000000E+00 0.000000000000E+00 0.000000000000E+00 0.000000000000E+00 0.000000000000E+00 0.000000000000E+00 0.000000000000E+00 0.000000000000E+00 0.000000000000E+00 0.000000000000E+00 0.000000000000E+00 0.000000000000E+00 0.000000000000E+00 0.000000000000E+00 0.000000000000E+00 0.000000000000E+00 0.000000000000E+00 0.000000000000E+00 0.000000000000E+00 0.000000000000E+00 0.000000000000E+00 0.000000000000E+00 0.000000000000E+00 0.000000000000E+00 0.000000000000E+00 0.000000000000E+00 0.000000000000E+00 0.000000000000E+00 0.000000000000E+00
 -3.819406585672E-02 3.785196401759E-03 0.000000000000E+00 -1.892798919856E+01 -3.116707155732E+01 0.000000000000E+00 8.576814903665E-02 8.844249043093E-02 0.000000000000E+00 7.787962467108E-02 5.691236214116E-02 0.000000000000E+00 4.172936677400E-02 -1.792938136421E-01 0.000000000000E+00 1.530893991510E-02 -3.651989875001E-02 0.000000000000E+00 4.122867042057E-02 -4.111154872910E-02 0.000000000000E+00 -2.804619265807E-02 -1.306896216130E-03 0.000000000000E+00 -4.271656621699E-01 3.388327057817E-01 0.000000000000E+00 -1.250667965652E-01 2.946290178974E-02 0.000000000000E+00 3.931090705128E+01 -6.945679531153E+01 0.000000000000E+00 -2.297617178704E+01 4.062151496407E+01 0.000000000000E+00 4.020114704057E+01 6.683873416111E+01 0.000000000000E+00 2.772023969594E+03
 -3.824270708060E-02 1.299835294636E-02 0.000000000000E+00 3.376243086380E+01 5.564189840051E+01 0.000000000000E+00 4.154770982985E-02 1.338194895491E-01 0.000000000000E+00 5.250284303583E-02 3.247831968080E-02 0.000000000000E+00 9.403866782076E-02 -1.009861046272E-01 0.000000000000E+00 1.417052142262E-02 -3.729272546495E-02 0.000000000000E+00 4.407446452696E-02 -3.942555750379E-02 0.000000000000E+00 -3.231320168318E-03 -4.092051343056E-03 0.000000000000E+00 -3.041606207792E-01 4.271245892946E-02 0.000000000000E+00 -8.160285688392E-02 3.267464362163E-02 0.000000000000E+00 -2.056759939690E-01 3.607634059570E-01 0.000000000000E+00 -4.184219340248E+01 7.403755485648E+01 0.000000000000E+00 -1.883909657918E-01 -3.022854461219E-01 0.000000000000E+00 -3.734101390158E+01 2.756757792607E+03
 0.000000000000E+00 0.000000000000E+00 0.000000000000E+00 0.000000000000E+00 0.000000000000E+00 0.000000000000E+00 0.000000000000E+00 0.000000000000E+00 0.000000000000E+00 0.000000000000E+00 0.000000000000E+00 0.000000000000E+00 0.000000000000E+00 0.000000000000E+00 0.000000000000E+00 0.000000000000E+00 0.000000000000E+00 0.000000000000E+00 0.000000000000E+00 0.000000000000E+00 0.000000000000E+00 0.000000000000E+00 0.000000000000E+00 0.000000000000E+00 0.000000000000E+00 0.000000000000E+00 0.000000000000E+00 0.000000000000E+00 0.000000000000E+00 0.000000000000E+00 0.000000000000E+00 0.000000000000E+00 0.000000000000E+00 0.000000000000E+00 0.000000000000E+00 0.000000000000E+00 0.000000000000E+00 0.000000000000E+00 0.000000000000E+00 0.000000000000E+00 0.000000000000E+00 0.000000000000E+00
 -4.956215023055E-04 -2.691395755547E-03 0.000000000000E+00 -6.781124375394E-03 1.164567095742E-02 0.000000000000E+00 3.944766077431E-02 1.594303148687E-02 0.000000000000E+00 1.371120096832E-02 1.453171034106E-02 0.000000000000E+00 1.083378630955E-02 -3.616023927428E-02 0.000000000000E+00 3.078037942660E-03 3.623188429269E-04 0.000000000000E+00 2.436650678287E-03 -8.152171761770E-03 0.000000000000E+00 -3.075956495197E-03 -2.562435760316E-04 0.000000000000E+00 -8.507323345231E-02 3.791563158184E-02 0.000000000000E+00 -2.235251392928E-02 1.293743814281E-02 0.000000000000E+00 -1.231744106432E+03 4.354786987691E+02 0.000000000000E+00 -5.073734406830E+02 -2.020744422357E+01 0.000000000000E+00 6.284923957076E-03 -6.513053756373E-03 0.000000000000E+00 3.757524497596E-03 1.110326473621E-02 0.000000000000E+00 2.842992758104E+03
 1.130909415139E-02 1.306981900341E-02 0.000000000000E+00 1.120578263544E-02 -3.135701881155E-02 0.000000000000E+00 -1.439719294564E-01 -5.088152264189E-02 0.000000000000E+00 -9.281991860790E-02 -7.068141731652E-02 0.000000000000E+00 -8.477825900740E-02 3.102045969288E-01 0.000000000000E+00 -1.276168743781E-02 -1.642234256678E-03 0.000000000000E+00 1.593785992132E-02 4.610888380687E-03 0.000000000000E+00 3.407650761423E-02 -2.809307773049E-04 0.000000000000E+00 4.531613045903E-01 -4.612534795468E-01 0.000000000000E+00 1.629557345807E-01 -6.230406349227E-02 0.000000000000E+00 4.376241276507E+02 -7.344216589200E+02 0.000000000000E+00 -3.019688022671E+01 -1.541332209708E+03 0.000000000000E+00 -1.703953853802E-03 1.098360729063E-02 0.000000000000E+00 1.159302963591E-03 -5.151661559854E-03 0.000000000000E+00 2.979312932398E+01 2.892841519843E+03
 0.000000000000E+00 0.000000000000E+00 0.000000000000E+00 0.000000000000E+00 0.000000000000E+00 0.000000000000E+00 0.000000000000E+00 0.000000000000E+00 0.000000000000E+00 0.000000000000E+00 0.000000000000E+00 0.000000000000E+00 0.000000000000E+00 0.000000000000E+00 0.000000000000E+00 0.000000000000E+00 0.000000000000E+00 0.000000000000E+00 0.000000000000E+00 0.000000000000E+00 0.000000000000E+00 0.000000000000E+00 0.000000000000E+00 0.000000000000E+00 0.000000000000E+00 0.000000000000E+00 0.000000000000E+00 0.000000000000E+00 0.000000000000E+00 0.000000000000E+00 0.000000000000E+00 0.000000000000E+00 0.000000000000E+00 0.000000000000E+00 0.000000000000E+00 0.000000000000E+00 0.000000000000E+00 0.000000000000E+00 0.000000000000E+00 0.000000000000E+00 0.000000000000E+00 0.000000000000E+00 0.000000000000E+00 0.000000000000E+00 0.000000000000E+00
 -1.445407605096E-02 6.768134953356E-03 0.000000000000E+00 7.923493581659E-03 2.324751091101E-02 0.000000000000E+00 1.413721715840E-02 1.608879223368E-03 0.000000000000E+00 -3.129312355870E-02 -6.297790059619E-03 0.000000000000E+00 -4.819674791355E-02 1.098292823942E-01 0.000000000000E+00 -1.966737037834E+01 3.496290307166E+01 0.000000000000E+00 1.621628811616E-02 -3.958684456172E-02 0.000000000000E+00 7.201060642681E-03 5.214760463880E-03 0.000000000000E+00 4.921741096907E-02 -1.256770171629E-01 0.000000000000E+00 5.454459078470E-02 -1.603782678550E-02 0.000000000000E+00 -1.224511151440E+03 -4.238421828465E+02 0.000000000000E+00 -2.864751672546E-03 1.309832557479E-02 0.000000000000E+00 -1.170408334682E+03 4.254450060677E+02 0.000000000000E+00 -4.721019169507E+02 -1.252030559778E+01 0.000000000000E+00 -1.967208925674E+01 -3.371204075917E+01 0.000000000000E+00 2.751792801375E+03
 4.333518266394E-02 2.603301657554E-02 0.000000000000E+00 8.179039679624E-02 -6.370768750477E-02 0.000000000000E+00 -2.561113178677E-01 -1.205248671111E-01 0.000000000000E+00 -1.584017910845E-01 -1.324105690835E-01 0.000000000000E+00 -1.654096350556E-01 5.474019448318E-01 0.000000000000E+00 -3.274197816844E+01 5.811664380446E+01 0.000000000000E+00 7.716597741961E-03 2.346366717957E-02 0.000000000000E+00 5.148580174606E-02 3.421919701167E-03 0.000000000000E+00 8.720075766477E-01 -7.952493700761E-01 0.000000000000E+00 2.875202503777E-01 -1.096213397076E-01 0.000000000000E+00 -4.270946815061E+02 -7.107218918177E+02 0.000000000000E+00 1.277312229400E-02 8.500207295777E-03 0.000000000000E+00 4.268196221964E+02 -7.192652360112E+02 0.000000000000E+00 -3.124941691719E+00 -1.497307817743E+03 0.000000000000E+00 3.476453935866E+01 5.955790656414E+01 0.000000000000E+00 3.818327874729E+00 2.809446290190E+03
 0.000000000000E+00 0.000000000000E+00 0.000000000000E+00 0.000000000000E+00 0.000000000000E+00 0.000000000000E+00 0.000000000000E+00 0.000000000000E+00 0.000000000000E+00 0.000000000000E+00 0.000000000000E+00 0.000000000000E+00 0.000000000000E+00 0.000000000000E+00 0.000000000000E+00 0.000000000000E+00 0.000000000000E+00 0.000000000000E+00 0.000000000000E+00 0.000000000000E+00 0.000000000000E+00 0.000000000000E+00 0.000000000000E+00 0.000000000000E+00 0.000000000000E+00 0.000000000000E+00 0.000000000000E+00 0.000000000000E+00 0.000000000000E+00 0.000000000000E+00 0.000000000000E+00 0.000000000000E+00 0.000000000000E+00 0.000000000000E+00 0.000000000000E+00 0.000000000000E+00 0.000000000000E+00 0.000000000000E+00 0.000000000000E+00 0.000000000000E+00 0.000000000000E+00 0.000000000000E+00 0.000000000000E+00 0.000000000000E+00 0.000000000000E+00 0.000000000000E+00 0.000000000000E+00 0.000000000000E+00
 4.564484364117E-02 1.598828726079E-02 0.000000000000E+00 2.508731056227E-02 -5.033937107856E-02 0.000000000000E+00 -2.773043018929E-01 -1.359267573416E-01 0.000000000000E+00 -2.151161058645E-01 -1.522513348503E-01 0.000000000000E+00 -1.970167655897E-01 7.162331472462E-01 0.000000000000E+00 -3.021385830569E-02 1.703809252499E-02 0.000000000000E+00 3.252863068497E-03 1.784904619138E-03 0.000000000000E+00 8.485156184019E-02 -1.281925851794E-02 0.000000000000E+00 1.084856510013E+00 -1.104991922090E+00 0.000000000000E+00 3.978205527804E-01 -1.403935055035E-01 0.000000000000E+00 -1.013358859534E-02 2.643689574704E-03 0.000000000000E+00 -1.508892163944E+03 -5.266055687746E+02 0.000000000000E+00 -1.928507447696E-02 -1.580927431929E-02 0.000000000000E+00 -1.275535977739E+03 4.365960395123E+02 0.000000000000E+00 4.857034120905E+01 -1.318440988633E+00 0.000000000000E+00 3.947284678957E+01 -2.211078144185E-01 0.000000000000E+00 3.074489772081E+03
 1.449396977980E-02 3.908533548149E-04 0.000000000000E+00 8.067192030344E-03 -9.438551350353E-03 0.000000000000E+00 -3.968409233369E-02 -6.510271618631E-02 0.000000000000E+00 -4.765600277632E-02 -3.168276539466E-02 0.000000000000E+00 -6.078141027085E-02 1.459410094107E-01 0.000000000000E+00 -7.555421636650E-03 1.032205055462E-02 0.000000000000E+00 -1.682374932838E-02 7.852200613143E-03 0.000000000000E+00 1.380454669390E-02 -1.614960109210E-04 0.000000000000E+00 2.458459164194E-01 -1.889171521281E-01 0.000000000000E+00 8.950656697812E-02 -3.389754919875E-02 0.000000000000E+00 1.584909811416E-03 9.302203628035E-03 0.000000000000E+00 -5.363906941403E+02 -8.629688125870E+02 0.000000000000E+00 -3.327364794792E-03 -1.177725496709E-02 0.000000000000E+00 4.214553724927E+02 -7.277019461197E+02 0.000000000000E+00 -8.595264387804E+01 2.342231625076E+00 0.000000000000E+00 7.189241876664E+01 -3.819784857324E-01 0.000000000000E+00 8.932514487169E+01 2.538305951390E+03
 0.000000000000E+00 0.000000000000E+00 0.000000000000E+00 0.000000000000E+00 0.000000000000E+00 0.000000000000E+00 0.000000000000E+00 0.000000000000E+00 0.000000000000E+00 0.000000000000E+00 0.000000000000E+00 0.000000000000E+00 0.000000000000E+00 0.000000000000E+00 0.000000000000E+00 0.000000000000E+00 0.000000000000E+00 0.000000000000E+00 0.000000000000E+00 0.000000000000E+00 0.000000000000E+00 0.000000000000E+00 0.000000000000E+00 0.000000000000E+00 0.000000000000E+00 0.000000000000E+00 0.000000000000E+00 0.000000000000E+00 0.000000000000E+00 0.000000000000E+00 0.000000000000E+00 0.000000000000E+00 0.000000000000E+00 0.000000000000E+00 0.000000000000E+00 0.000000000000E+00 0.000000000000E+00 0.000000000000E+00 0.000000000000E+00 0.000000000000E+00 0.000000000000E+00 0.000000000000E+00 0.000000000000E+00 0.000000000000E+00 0.000000000000E+00 0.000000000000E+00 0.000000000000E+00 0.000000000000E+00 0.000000000000E+00 0.000000000000E+00 0.000000000000E+00
 6.664914057517E-02 4.692634583949E-02 0.000000000000E+00 -1.223538469214E+03 4.480335524343E+02 0.000000000000E+00 -5.527418863911E-01 -1.258368134922E-01 0.000000000000E+00 -3.714637950736E-01 -2.701901904134E-01 0.000000000000E+00 -2.702949296292E-01 1.304936361774E+00 0.000000000000E+00 4.058482570647E+01 -4.019024714246E-01 0.000000000000E+00 1.552340925280E-02 -1.434890110993E-02 0.000000000000E+00 -1.980658552452E+01 3.598129139990E+01 0.000000000000E+00 1.981647955936E+00 -2.232909491909E+00 0.000000000000E+00 7.255036924858E-01 -2.321271875501E-01 0.000000000000E+00 -1.607611700303E-02 1.795147727654E-03 0.000000000000E+00 1.968371349139E-02 6.372912043505E-03 0.000000000000E+00 2.032352699522E-02 1.155241312672E-02 0.000000000000E+00 -1.141022405871E+03 -3.883516073165E+02 0.000000000000E+00 8.481636999675E-04 -6.367936305438E-03 0.000000000000E+00 3.649117839972E+01 -2.470846699521E-01 0.000000000000E+00 -1.774124368386E+01 -3.226825421815E+01 0.000000000000E+00 2.730582461447E+03
 -1.214195951569E-01 -1.221470502823E-01 0.000000000000E+00 4.575216560843E+02 -7.457432464506E+02 0.000000000000E+00 8.016639245170E-01 -2.892745941795E-01 0.000000000000E+00 4.291390419302E-01 3.749683693955E-01 0.000000000000E+00 4.469844297774E-02 -1.708215050237E+00 0.000000000000E+00 6.705276749647E+01 -5.886172898696E-01 0.000000000000E+00 -1.838731576778E-01 1.183245133001E-01 0.000000000000E+00 -3.317323618407E+01 5.942402621538E+01 0.000000000000E+00 -2.244688595433E+00 3.481173410790E+00 0.000000000000E+00 -8.561724154632E-01 2.102871619563E-01 0.000000000000E+00 1.148212835421E-02 -1.116321900469E-02 0.000000000000E+00 -1.161760131603E-02 -1.813047487655E-02 0.000000000000E+00 6.468111939233E-02 -1.251551739100E-01 0.000000000000E+00 -3.867442502892E+02 -6.660756153046E+02 0.000000000000E+00 -1.444609794800E-02 3.235251631009E-02 0.000000000000E+00 -6.515062289591E+01 4.038929785149E-01 0.000000000000E+00 3.163930735110E+01 5.756481895154E+01 0.000000000000E+00 -7.810186403991E+00 2.821008321113E+03
 0.000000000000E+00 0.000000000000E+00 0.000000000000E+00 0.000000000000E+00 0.000000000000E+00 0.000000000000E+00 0.000000000000E+00 0.000000000000E+00 0.000000000000E+00 0.000000000000E+00 0.000000000000E+00 0.000000000000E+00 0.000000000000E+00 0.000000000000E+00 0.000000000000E+00 0.000000000000E+00 0.000000000000E+00 0.000000000000E+00 0.000000000000E+00 0.000000000000E+00 0.000000000000E+00 0.000000000000E+00 0.000000000000E+00 0.000000000000E+00 0.000000000000E+00 0.000000000000E+00 0.000000000000E+00 0.000000000000E+00 0.000000000000E+00 0.000000000000E+00 0.000000000000E+00 0.000000000000E+00 0.000000000000E+00 0.000000000000E+00 0.000000000000E+00 0.000000000000E+00 0.000000000000E+00 0.000000000000E+00 0.000000000000E+00 0.000000000000E+00 0.000000000000E+00 0.000000000000E+00 0.000000000000E+00 0.000000000000E+00 0.000000000000E+00 0.000000000000E+00 0.000000000000E+00 0.000000000000E+00 0.000000000000E+00 0.000000000000E+00 0.000000000000E+00 0.000000000000E+00 0.000000000000E+00 0.000000000000E+00