#BIOSYM hessian 1
@Type: Hessian Update
@Units
 distance: 	A
 energy: 	Kcal/Mol
#header
@natom 67

#label
C1      C2      C3      C4      C5      C6      C7      C8      C9      C10     C11     C12     C13     C14     C15     C16     C17     C18     C19     C20     C21     C22     C23     H24     C25     C26     C27     C28     C29     C30     C31     C32     C33     C34     C35     C36     C37     C38     C39     C40     C41     C42     C43     C44     C45     C46     C47     C48     C49     H50     H51     H52     H53     H54     H55     H56     H57     H58     H59     H60     H61     H62     H63     H64     H65     H66     H67

#element
C  C  C  C  C  C  C  C  C  C  C  C  C  C  C  C  C  C  C  C  C  C  C  H  C  C  C  C  C  C  C  C  C  C  C  C  C  C  C  C  C  C  C  C  C  C  C  C  C  H  H  H  H  H  H  H  H  H  H  H  H  H  H  H  H  H  H 

#matrix
201
 2.782241655100E+03
 -2.123919670495E+01 2.809626323611E+03
 2.362133378907E+00 -2.151808251141E+01 1.928609684726E+02
 3.976053189578E+01 6.711898044214E+01 -1.025157931915E+00 2.779956098518E+03
 -4.341823546306E-01 -7.329723906482E-01 8.202710378813E-02 -2.712169570868E+00 2.760780227977E+03
 -9.483330555304E-02 -7.892845511708E-02 8.649968974518E+00 8.177705318344E-01 -3.902578537055E+01 1.905996100249E+02
 -1.964085348129E+01 3.467245397626E+01 -5.663510017730E-01 -4.525620855421E-02 1.891667273244E-02 -5.871964058673E-03 2.808626062225E+03
 -3.357149292411E+01 5.930880912887E+01 -8.023326145723E-01 -2.863651383459E-03 4.260975970288E-03 -7.199135407311E-03 -2.714813269255E+01 2.820483380493E+03
 3.153274988057E-01 -4.807125938269E-01 9.587723445841E+00 1.192562847145E-01 -4.629098683016E-02 -4.535958797164E-02 1.592508120646E+01 -2.932117833594E+01 1.959946644933E+02
 3.893217379308E+01 -6.884169913654E+01 1.053972466356E+00 -1.976839432608E+01 3.545151246111E+01 -6.796384202914E-01 4.190508101384E+01 7.164514885549E+01 -7.737756359604E-01 2.784561852667E+03
 -4.343239146462E-01 7.597538052635E-01 8.462853777814E-02 -3.328913695565E+01 5.974762289894E+01 -9.038334099276E-01 -4.559954588196E-01 -7.782730449212E-01 1.109906049711E-01 -1.912175804316E+01 2.832378786692E+03
 1.386975765416E-01 -1.646124887249E-01 9.396740541370E+00 5.537381209424E-01 -8.111970086945E-01 9.569828831465E+00 1.474458929976E-01 4.674200727550E-01 9.010206561074E+00 9.997532941249E+00 -3.533425939291E+01 1.950962486844E+02
 -6.438979630323E-03 -2.058420364198E-02 4.488982424751E-02 -5.277310924627E-02 1.349782025414E-02 -8.638326178870E-03 4.194423378895E+01 -7.358538216983E+01 1.284987207341E+00 -2.149925324916E+01 3.822068744686E+01 -7.416834883563E-01 2.633251915220E+03
 -1.590652100212E-02 -2.893732809307E-02 6.637505569347E-02 -6.938112602196E-02 2.604934329248E-02 -4.362871991974E-03 2.705505135724E-01 -4.961680644439E-01 1.189775292187E-01 -3.526560436006E+01 6.267950997636E+01 -9.508928878454E-01 -2.213294358526E+02 2.897665175342E+03
 6.032026820326E-03 -1.479590233232E-02 -1.583962253599E-01 -1.222859738897E-01 4.323804058434E-02 6.690939798823E-02 2.719011171179E-01 -4.347807038300E-01 1.029360842979E+01 3.724071719953E-01 -5.719649246379E-01 1.057781594642E+01 1.679776499190E+01 -4.063653570313E+01 1.558640773911E+02
 -1.225842811191E+03 4.461377642998E+02 -3.493496932794E+00 -4.642266874153E+02 -1.026024259578E+01 6.484560082084E-01 1.525578759530E-03 4.458271300964E-03 2.993746619286E-04 7.314141035524E-03 8.609284749633E-03 -1.005757165356E-02 3.435543742035E-03 6.123506965838E-03 -8.645289347281E-04 2.813113644133E+03
 4.419187939909E+02 -7.393676140321E+02 6.630267021809E+00 -1.134813440930E+01 -1.436061902606E+03 1.909404232961E+01 -1.441555583106E-02 1.463992328290E-02 7.821340047711E-02 1.200434501810E-02 -1.537017201586E-02 -1.103480554664E-01 -4.729890593830E-03 -1.363190732972E-03 -6.673794282076E-02 4.164624248598E-01 2.777876252677E+03
 -3.494528463240E+00 6.613581946597E+00 -8.313811963659E+01 5.263184734283E-01 1.894552874502E+01 -8.103245742835E+01 8.841109639208E-03 3.370986884660E-02 4.308014733813E+00 4.382126421712E-02 -9.115545567751E-02 -9.233445186655E+00 7.468046559181E-02 4.193484881113E-02 4.268068622609E-01 -8.016683981246E+00 -3.495962789458E+01 1.921346666855E+02
 -1.198494443597E+03 -4.130853645723E+02 1.483540685386E+00 5.562667509011E-02 -2.933828255698E-02 3.602748898437E-02 -1.253679364917E+03 4.452314103291E+02 -1.130289505445E+01 -4.856248030268E+02 -1.367739303095E+01 -1.461009134490E+00 1.699385156887E-03 1.475692004210E-02 7.538190910141E-03 -1.954177265785E+01 -3.297316726353E+01 1.978913799337E-01 2.817397296504E+03
 -4.133453643465E+02 -7.018931204557E+02 5.394386063103E+00 4.021548172587E-02 -1.395299993106E-02 -8.249137742539E-02 4.469331232020E+02 -7.445494299588E+02 1.025430256414E+01 -1.510910752326E+01 -1.515242169184E+03 1.840134561868E+01 -5.369019594086E-03 -5.797325868746E-03 -1.729619627271E-01 3.452948292023E+01 5.829288663020E+01 -4.307735614920E-01 -2.102670180134E+01 2.843929235513E+03
 1.495487337433E+00 5.355714158387E+00 -8.191785548067E+01 -1.287334534928E-01 -1.181822854693E-01 -9.118154970402E+00 -1.132946859112E+01 1.020682187814E+01 -8.560891896921E+01 -1.402144438537E+00 1.838985472074E+01 -8.535646833312E+01 1.305658274168E-01 -9.455832774559E-02 -9.678538176850E+00 -2.679229840244E-01 -4.374016639298E-01 9.229253572713E+00 1.110927217208E+01 -3.374524756208E+01 1.965502902656E+02
 2.034281556228E-02 5.097769543324E-03 5.821990824619E-02 -1.236483178498E+03 -4.259564580213E+02 5.904594785409E+00 2.743626128845E-02 -3.837139095127E-03 -1.461509996561E-01 -1.222034901017E+03 4.417348222959E+02 -9.775783552424E+00 4.975520476194E-02 5.185285250597E-02 1.148404119325E-01 3.762568199637E+01 -4.534146275131E-01 1.205245647551E-01 4.155782528720E+01 -4.900573993771E-01 2.541223067252E-01 2.817050681821E+03
 1.259509419361E-02 3.457848476180E-03 -1.081327396133E-01 -4.263572293701E+02 -7.100108284698E+02 9.815414212775E+00 -5.524946886131E-03 7.149219539904E-03 1.257564554137E-01 4.385309795192E+02 -7.362424404413E+02 1.113517681234E+01 -1.013556486898E-02 5.029849478347E-03 -1.286797520855E-02 -6.759735917627E+01 7.995359780858E-01 8.493267027767E-02 7.009880916455E+01 -7.496323612447E-01 3.558187296542E-01 7.165553798402E+00 2.799433918419E+03
 -2.524869045606E-02 -1.691229994311E-01 -9.325114954458E+00 5.925580326961E+00 9.974096422374E+00 -8.276675958267E+01 8.835622742773E-03 1.517275179513E-02 4.401423623846E+00 -9.798010939029E+00 1.123825778650E+01 -8.338606087212E+01 3.213065262540E-02 9.511311690162E-02 5.432887987046E+00 9.391943846527E-01 6.935787217031E-02 9.412811090041E+00 -7.917071202628E-01 8.052014725272E-02 9.772772132991E+00 4.511693704167E+00 -4.479507451224E+01 1.956521558892E+02
 5.364235487870E-03 2.444220140543E-02 -1.018050931789E-01 7.273397002187E-02 -1.015316448233E-02 1.646124083084E-02 -1.200806934250E+03 -4.087023136326E+02 -2.216683675060E+00 -6.453642662355E-03 -5.491392629998E-03 1.006896038825E-01 -5.217757484348E+02 6.439208874510E+00 -3.095694944434E+00 -3.253078830250E-03 1.323721131070E-02 -1.217880865487E-01 -1.975401620131E+01 -3.377307479135E+01 1.100491497560E-01 -7.213247513577E-02 2.153285261534E-02 -9.818427082258E-02 2.778545340958E+03
 1.099963456352E-02 6.259208487664E-03 8.742313906869E-02 -1.282200943841E-02 -1.881101874944E-02 -4.802522056554E-03 -4.168889482615E+02 -7.047902874119E+02 5.024281423406E+00 2.020607461400E-02 -4.663206989808E-04 -1.518892820074E-01 8.125008671250E+00 -1.634447416372E+03 2.307130224635E+01 1.971558746987E-03 -7.636651329973E-03 9.264054718329E-02 3.463901424505E+01 5.925691738909E+01 -2.816311128963E-01 3.174225297793E-02 -2.561453510449E-02 9.804575968870E-02 -2.877321216377E+01 2.959561201830E+03
 -2.069930921912E-02 7.810485554931E-02 4.798148555185E+00 1.420545885491E-01 -7.705705127743E-02 -1.251760580906E-01 -2.156658344479E+00 5.198232368604E+00 -8.298511468794E+01 6.759012599349E-02 -1.638624672489E-01 -1.002013246076E+01 -3.052151661866E+00 2.306053044906E+01 -7.885411197600E+01 2.410405255378E-03 8.123946919371E-02 -5.117512016836E-01 -5.126493314039E-01 -7.015492317909E-01 9.896771794481E+00 -1.300951332234E-01 8.241639049743E-02 -6.713109856286E-01 1.982626772154E+01 -4.026947222034E+01 1.840238451492E+02
 6.980100588143E-03 1.897902190293E-02 -5.345813408497E-02 4.726269118304E-02 -1.445189728081E-02 -1.522353734427E-02 1.780207399948E-04 1.554238952153E-02 1.052495140707E-01 -1.194251206165E+03 -4.149753542381E+02 1.142021169397E+00 -1.331986377354E+03 4.948281362430E+02 -1.328780047145E+01 -1.505719353433E-04 6.344511221341E-03 -6.634196476399E-02 3.863127104300E+01 -4.222818041780E-01 3.589743992937E-02 -1.936625296077E+01 -3.258093092969E+01 2.822788063593E-01 4.949277098583E+01 2.885436403372E-01 2.318447331678E-01 2.878061598851E+03
 6.323274537845E-03 1.483006117655E-02 3.937549177925E-03 4.504239775722E-02 -5.835737660597E-03 6.127162731340E-02 -9.109047492818E-03 6.428531642948E-03 -8.531866958505E-02 -4.066951002965E+02 -7.013255500899E+02 6.978645124651E+00 4.933894793485E+02 -8.223615663741E+02 1.311917400997E+01 -4.723467800967E-03 5.067665736536E-03 -6.711718463778E-02 -6.869574822271E+01 7.739379840003E-01 -1.652620977522E-01 3.430892081637E+01 5.792802623350E+01 -6.095994438170E-01 8.116075364320E+01 4.912139958198E-01 5.713626559707E-01 -9.632662939568E+01 2.850799006522E+03
 -3.843133383196E-02 3.309441856830E-02 3.909000673580E+00 -2.261825906705E-01 1.933359728993E-01 4.701992018021E+00 5.583292085620E-02 -1.791978499409E-01 -1.069628665896E+01 9.786976323251E-01 6.948587146514E+00 -8.285696833957E+01 -1.302804210373E+01 1.313957887650E+01 -7.722650414922E+01 1.460209487362E-02 -1.101381202807E-01 7.431375183527E-01 9.558117464911E-01 9.011139767578E-02 1.094971883861E+01 -3.755673208774E-01 -8.620783097607E-01 9.302234289460E+00 -1.093688892030E+00 2.001406190059E-01 9.521406611068E+00 1.399941827316E+01 -4.004882727917E+01 1.853367688080E+02
 -1.739345823434E-01 -2.296180774543E-01 3.344102391689E-02 -4.650957103455E-01 3.362801929126E-01 6.716603810548E-02 -1.438548828033E-01 -1.143985503761E-01 7.335483089336E-02 -1.630227317596E-01 -5.906593121803E-03 2.678267539476E-02 -1.722245274390E-01 -3.503110664067E-01 1.246169376590E-01 2.348829217883E-02 -3.353409613996E-02 -6.944317916410E-02 1.993739796412E-01 1.175860813170E-01 -4.275719138370E-02 1.701265191026E-01 1.241692030867E-01 -1.357960796831E-01 1.513873290382E-01 1.390263009509E-01 -1.444022764065E-01 1.640114781558E-01 1.585713098419E-01 1.124039349865E-01 2.743113142000E+03
 1.539044676451E-02 7.031239102921E-03 1.457494133622E-01 1.314971598570E-02 -6.450981095949E-02 -4.063893502572E-02 5.844581345995E-02 -3.256521333411E-02 -1.498707181056E-02 6.016599928908E-03 1.598144252703E-02 -4.619166770101E-02 2.942677999006E-02 1.746231739010E-02 2.922448810655E-02 3.360364221462E-02 7.405159259367E-02 1.478648637121E-01 -5.208673988306E-02 -2.023191035130E-02 2.444290447558E-02 5.362260205537E-02 -2.450507923141E-02 -6.743383663709E-03 -8.383250268696E-02 5.540957049568E-02 5.072822586857E-02 -2.288448204583E-02 -2.636406043460E-02 -1.459514996050E-01 8.184866910521E+01 2.715479436775E+03
 -2.981239843844E-02 4.361300234835E-02 -1.001551868544E+00 7.315048450812E-02 1.447912177907E-01 2.961979578868E-01 -1.801455241539E-01 2.304652324855E-02 -1.073696647486E-01 -1.279020912864E-01 -3.489942226947E-02 3.063105670450E-01 -2.016310497161E-01 -2.168093096344E-01 2.985095052798E-01 1.155817342290E-02 -1.046817308832E-02 4.626977342573E+00 7.979835329705E-02 1.772172338666E-01 7.138957824749E-02 -2.098909877646E-01 5.624547855107E-02 3.299399473753E-01 4.047303126509E-01 -2.731121638702E-01 -9.077252297855E-01 1.212545241387E-01 2.255350661424E-01 1.607523735028E+00 -4.383046944246E+01 -4.711235273015E+01 1.923518203199E+02
 -2.921968537722E-02 -2.597591571599E-02 3.166003756311E-01 8.548734486821E-02 3.764515031257E-02 -1.227247028383E-01 -1.075614143285E-01 1.177252747426E-01 5.691096693534E-01 5.547120291011E-02 -4.834079019022E-02 2.028268359165E-02 -5.880476086048E-02 1.236177196292E-02 -7.803287735293E-01 -9.011304135144E-02 -8.050377588158E-02 -6.543013237858E-01 1.519774828823E-01 3.184198539901E-02 -5.698821354950E-01 -1.937243776704E-01 1.358241361957E-01 -7.999289999441E-01 1.458577058516E-01 -1.104189596314E-01 1.057552222202E+00 6.417936311183E-02 1.570949208730E-02 -1.550885087431E+00 3.548359771779E+01 6.179200430433E+01 -3.501661444902E+00 2.826372717238E+03
 -9.404950353047E-02 -1.255609673479E-01 2.136316529023E-01 -2.033876036045E-01 1.814841086638E-01 -3.158975871090E-02 -1.062590445223E-01 3.080189342499E-03 2.548229926217E-01 -3.646277306637E-02 -2.338683683611E-02 -1.236198147719E-03 -8.132454023932E-02 -1.275329620325E-01 -2.726825644463E-01 -3.622060773412E-02 -8.149234279734E-02 -3.068903831370E-01 1.618131108234E-01 4.676136292733E-02 -2.398703734105E-01 1.652710385802E-02 1.080187122078E-01 -3.851964690743E-01 9.827546823603E-02 4.235596588348E-02 4.174714693673E-01 8.997816828140E-02 5.314392244753E-02 -6.634460251179E-01 -2.928324953463E+00 -2.254770036919E+00 -1.653966615111E-01 3.074297507664E+02 2.764156418974E+03
 5.080834132200E-02 4.471676761542E-02 1.329008617479E+00 2.958967746467E-01 -2.569819316963E-01 -4.365376650011E-01 9.387584871254E-02 6.001954879232E-02 1.066311462859E+00 1.373646736019E-01 -3.206503629009E-02 -2.137701355230E-01 2.744748220158E-02 1.022281058666E-01 -1.451221048349E+00 -1.676725681100E-02 1.738643316157E-01 -1.089505003447E+00 7.818952315042E-03 -5.883160936754E-02 -1.016671160589E+00 -1.687362966392E-01 1.418924052128E-01 -1.650447385808E+00 -1.235764497131E-01 5.962287818842E-02 2.368421003696E+00 3.470229402046E-02 -6.614800411853E-02 -3.788831229948E+00 -9.108718656149E-01 -3.908970944486E-01 5.442303362077E+00 -3.574969094011E+01 -8.349483978553E+01 1.575219388882E+02
 -2.017239827571E+01 -3.403596019251E+01 5.472512846693E-01 3.831050653220E+01 -4.390716563069E-01 -7.030201827712E-02 -9.479929488762E-03 -1.152691909449E-02 1.671878528083E-02 -1.731920035442E-02 -4.152432519103E-04 1.860535429410E-02 -2.251640180559E-02 -3.496063381377E-02 7.918406189911E-04 -1.242342099007E+03 -4.300609933282E+02 1.078031798535E+01 4.464586799282E-03 1.944368990196E-02 -1.621080278077E-02 -6.065175975289E-03 9.894844095450E-03 -8.496949347393E-03 2.715886694873E-02 -8.078855316611E-03 -1.900238127694E-02 1.621602089898E-02 2.475980286700E-02 2.214774849256E-02 -2.004861763067E+01 3.511422529737E+01 -1.382951653321E-01 1.588769852421E-01 1.027929974011E-02 -1.410337703549E-01 2.751078382219E+03
 3.570639634856E+01 6.026374580182E+01 -8.628952178048E-01 -6.785462338308E+01 7.899278885745E-01 3.283626862691E-01 -4.556233988257E-03 -2.144659705301E-03 7.602052290422E-03 -8.205754965525E-03 1.457675960683E-03 1.919222217741E-02 -1.064648564889E-02 -9.391739113525E-03 5.793904866769E-03 -4.362209254759E+02 -7.178078089137E+02 9.320620682529E+00 6.286020073519E-04 1.215175033969E-02 5.580331835753E-02 -1.317481785197E-02 -1.710957330470E-03 6.362460820613E-02 1.905959135767E-02 -1.363360037805E-02 -2.805109049630E-02 7.284415788639E-03 1.076854220896E-02 5.315281444868E-02 -3.336768392102E+01 5.903675193981E+01 -3.549628924528E-01 1.291061490021E-02 1.901708323151E-02 -1.392013650869E-01 2.521430409704E+01 2.797214310997E+03
 -4.346921846278E-01 -5.796046847823E-01 9.538510122694E+00 8.300157118836E-01 1.508148602457E-01 8.812688852988E+00 -3.599695563927E-02 -5.759526484489E-03 -2.298158622248E-01 -3.386299153743E-02 1.021785653254E-02 7.203133700944E-02 -1.998699353404E-02 -3.800573636858E-02 3.284146026035E-01 1.077676466869E+01 9.214038521785E+00 -8.206740373749E+01 -3.655120108198E-03 4.758306893292E-02 4.759976620983E+00 2.482674973136E-03 3.996999960901E-02 4.918383722519E+00 6.037621360064E-02 -4.171938322526E-02 -5.711964257415E-01 -6.795757925026E-04 3.308564364615E-02 9.257662707806E-01 1.257002956180E+00 -1.752793206119E+00 1.062153866541E+01 -6.159237059258E-01 -2.786647797571E-01 -2.016811590319E+00 -1.865267914752E+01 -2.344412815364E+01 1.898628896569E+02
 -5.267666545070E-02 -6.575064838964E-02 1.232908486017E-02 -1.948998620980E+01 -3.202769150061E+01 8.112032124875E-01 -6.873340144629E-02 -4.494384164696E-03 8.575101216877E-02 -3.476093724600E-02 -1.557779754537E-02 1.409161322344E-02 -5.543923805651E-02 -8.440428172728E-02 -7.815096016024E-02 -1.511352478599E-02 -5.430525108044E-02 -2.182145531560E-01 9.077937522902E-02 3.507703493120E-02 -8.081058020522E-02 1.840403988341E-03 5.391572617033E-02 -1.122538204564E-01 7.554265403528E-02 1.610471115615E-02 8.391772804322E-02 5.760738874691E-02 4.464858406805E-02 -1.199565028303E-01 3.897713525376E+01 -7.012133136406E+01 1.158840329866E+00 -2.327679896230E+01 4.081811767226E+01 -7.432821007168E-01 3.776769117578E+01 6.336322334616E+01 -1.805297429209E+00 2.774047413278E+03
 -4.998103444128E-02 -6.259534400051E-02 9.170150851197E-04 3.445540412745E+01 5.748635197136E+01 -1.131342111214E+00 -5.468719531099E-02 -2.019213401980E-02 7.257239716799E-02 -4.430156976834E-02 -9.186250172523E-03 2.409951274027E-02 -6.085699246793E-02 -1.034055760221E-01 -2.960008075209E-02 3.489802637333E-03 -2.374529329234E-02 -2.868155173522E-01 7.093561790356E-02 4.258215277704E-02 -7.065377583159E-02 2.054211339932E-02 5.253501299285E-02 -9.985558713968E-03 7.052875038619E-02 1.692878625625E-02 3.030295526582E-02 5.652568817776E-02 5.418059801619E-02 -6.581219935632E-02 -1.353644638457E+00 9.828694093548E-01 3.267582961668E-01 -4.137417540726E+01 7.433557753211E+01 -1.583609918087E+00 -5.367467019788E-01 -8.385923233641E-01 2.032233138481E-01 9.658210787292E+00 2.705721718716E+03
 -2.418078369981E-02 8.188437771902E-03 3.790323509187E-01 -5.699133510676E-01 -9.449672403826E-01 8.179706466305E+00 -2.113744671006E-02 3.103601901459E-02 4.905231201357E-01 1.193935675955E-02 6.603866140772E-03 -2.171688805679E-02 -5.340014416209E-02 -2.898200188722E-02 -6.113519945007E-01 7.334651666273E-02 -2.570859956835E-02 -9.264409604322E+00 5.928268275541E-02 1.915786806031E-02 -4.728924834208E-01 -1.442384920691E-01 1.334928533570E-01 3.736999635568E+00 6.650218356409E-02 -4.655820438703E-02 8.968180268664E-01 5.166541939458E-02 2.469937852459E-02 -1.401949845241E+00 -7.614590297329E-01 1.327852377063E+00 7.652475116383E+00 2.737652160180E+00 -1.864342950606E+00 1.402476473652E+01 -5.221170934600E-01 -8.455387434234E-01 7.999854634915E+00 -1.125574742094E+01 -5.463587050914E+01 1.849861434044E+02
 3.597566950927E-01 4.689379582550E-01 -3.096444572696E-01 8.961330130585E-01 -7.102107453327E-01 -6.234246454886E-02 3.376095144121E-01 1.881908128761E-01 -5.009031826521E-01 3.050222621771E-01 5.679163188214E-02 -4.431061183827E-02 3.827169246768E-01 6.967322845149E-01 2.412907503688E-01 -2.636216099081E-02 1.203248927896E-01 6.834771421110E-01 -4.824107806895E-01 -2.551967842182E-01 4.308751745598E-01 -2.140091311504E-01 -3.221429469024E-01 7.888965336055E-01 -3.674525715928E-01 -2.658944879943E-01 -3.687758737566E-01 -3.878355789532E-01 -3.349936216620E-01 7.370861513306E-01 -1.102704152350E+03 3.955526391791E+02 9.215073863825E+00 -4.830470016786E+02 -2.671464079697E+01 6.902201552917E+00 2.142951754609E-01 -9.332616858329E-02 2.785299683238E-01 1.671546193274E+00 1.666337607455E+00 -2.322722829766E-01 2.970821797588E+03
 3.301194747604E-01 4.403896411817E-01 -4.739289316221E-01 7.967615359828E-01 -5.798954292437E-01 1.380530313595E-03 2.898178309155E-01 1.412845045762E-01 -5.117113481431E-01 2.232307398747E-01 6.063886870395E-02 7.154981326033E-03 3.000565745006E-01 5.519332971651E-01 3.318676925866E-01 8.901952110338E-03 1.211585935579E-01 6.531590777329E-01 -4.393686483248E-01 -2.071614199222E-01 4.435019891946E-01 -2.045329075286E-01 -3.071017464774E-01 8.191007579264E-01 -2.502710862370E-01 -2.841532671973E-01 -5.634457909594E-01 -3.043409167513E-01 -2.327437995344E-01 1.067736835769E+00 3.935726131747E+02 -6.806449488116E+02 9.131380811950E+00 -2.295378540722E+01 -1.425421777251E+03 4.233653148352E+01 1.641146240325E-01 -5.356191622345E-02 5.661301605845E-01 1.608768575153E+00 1.500466851110E+00 -6.501731646998E-01 1.692552487996E+02 2.793407113334E+03
 -1.398548525405E-01 -2.191453717043E-01 -1.803637758434E+00 -8.892047050862E-01 6.782739835490E-01 6.895040810052E-01 -1.639827440895E-01 -1.200073708281E-01 -1.935961800072E+00 -1.922982365817E-01 4.519699944043E-02 2.007825431035E-01 5.295220731192E-02 -1.242238901285E-01 2.526240434824E+00 -6.382837600616E-02 -5.307714185894E-01 2.023705155339E+00 8.213154545006E-02 -1.009048304146E-02 1.866561982728E+00 4.749260859910E-01 -2.290518620698E-01 2.863197982145E+00 1.881807949305E-02 1.552069368062E-01 -3.857743247178E+00 -7.502569345763E-02 5.558667238113E-03 6.112378538442E+00 8.360409539015E+00 8.223911760459E+00 -7.302195138496E+01 1.463437248066E+00 4.134993333285E+01 -8.519637333349E+01 3.509134049543E-01 3.329593919554E-01 7.191414696970E+00 -1.235532917947E+00 -8.266445998834E-01 -1.401394413959E+01 -6.419144153998E+01 -8.265314624740E+01 2.041066777783E+02
 4.195800277963E-02 4.860672532066E-02 -4.979034638822E-02 6.764487586798E-02 -3.854174323536E-02 -5.811527920120E-02 3.916761582779E-02 1.263426663885E-02 -1.388098527706E-01 3.129583056144E-02 3.940891901174E-03 -6.340925575938E-03 5.195145400979E-02 8.394717112971E-02 1.265598912427E-01 -1.917408291385E+01 3.392375529070E+01 8.290268892290E-02 -5.613991800284E-02 -3.457776076061E-02 1.349026007485E-01 -4.993916837842E-03 -5.114721797131E-02 2.061234612400E-01 -5.664030107457E-02 -5.202453757493E-03 -1.901311222509E-01 -4.645566743933E-02 -4.345496045169E-02 3.229586309619E-01 -1.292188574835E+03 -4.576189698071E+02 2.839433580875E+01 -3.172949108967E-01 1.800488809215E-01 -6.584874555090E-01 -1.149320982084E+03 4.189106817474E+02 5.539758691149E+00 -4.570064764161E+02 -1.503999887043E+01 3.660159536437E+00 -2.011355819465E+01 -3.342033751933E+01 2.220445581057E+00 2.784726106983E+03
 5.295406425049E-02 8.964996739105E-02 -6.433003647803E-02 2.136341492191E-01 -1.019871463576E-01 -1.331791010983E-01 -1.413690803986E-03 7.208836568422E-02 9.395375770127E-02 5.022343091448E-02 -1.505992244609E-02 3.962653051709E-02 1.357031656769E-02 8.681341027969E-02 -1.829905317582E-01 -3.220381160600E+01 5.695103570645E+01 -3.125878143926E-01 -2.809864876196E-02 -7.030033581990E-03 -1.059458276015E-01 -1.408404620439E-01 1.506090273799E-03 -9.140731021031E-02 4.696505732679E-02 -1.234647153417E-01 1.560844156108E-01 -2.368551087681E-02 -1.102208961464E-02 -1.515390063141E-01 -4.542703343185E+02 -7.372045291217E+02 2.028726138449E+01 -2.226567170241E-03 3.824496760926E-01 -2.313985345725E-01 4.143025349618E+02 -7.041931955472E+02 4.723939534119E+00 -6.974448743923E+00 -1.432376492678E+03 2.880375711707E+01 3.124205993883E+01 5.558936595506E+01 -1.726624875070E+00 5.194975813779E+01 2.758941885309E+03
 2.267207218445E-02 -2.049093746321E-02 5.212365663475E+00 -3.177948738256E-01 -2.350327597469E-01 -8.875097141134E+00 2.278600867088E-01 -7.579737692868E-02 -5.442286244177E-01 1.273195734887E-01 7.216529378066E-02 -3.604758591928E-01 3.089059777271E-01 2.636288367343E-01 5.078564461855E-01 4.269176223444E-01 -7.426963510018E-01 8.976451084949E+00 -1.388198779534E-01 -2.611167132764E-01 5.728302439592E-01 4.747472179537E-01 -1.580056393172E-01 5.679197154962E-01 -5.829919728460E-01 4.202145092923E-01 -1.184342970588E-01 -2.184843896491E-01 -3.134392768921E-01 -8.396375643532E-02 2.826494022935E+01 2.089960897218E+01 -8.764101388186E+01 -6.473752093439E-01 -3.461126505194E-01 -7.933660628923E+00 5.201560711028E+00 4.526094639190E+00 -7.949800094409E+01 3.268787515657E+00 2.816342207585E+01 -8.002021931845E+01 7.802411001396E-01 -3.050938109346E-01 6.131903729412E+00 -3.735621922039E+01 -5.349338289483E+01 1.942808386630E+02
 4.839841237448E-02 5.601658641932E-02 -6.356084322142E-02 8.784551571438E-02 -1.079012040455E-01 3.279996744044E-02 7.783077740559E-02 -2.887860777053E-02 -1.515328842339E-01 8.288683713792E-03 2.028216933891E-02 -1.396495657735E-02 4.452832158182E-02 4.937854559451E-02 1.930451299818E-01 3.907192661595E-02 8.648506360710E-02 1.922907969567E-01 -1.037901416083E-01 -2.281861575193E-02 1.500677001858E-01 2.988512064037E-02 -6.282826674868E-02 2.159622022349E-01 -8.229340088006E-02 1.257352838410E-02 -2.479942856414E-01 -4.875102091521E-02 -2.743908835047E-02 3.492831812349E-01 5.205773461635E-01 -2.803485043897E-01 -1.916625204239E-03 -1.578655721222E+03 -5.430105238646E+02 3.019382749981E+01 -6.849144745945E-02 -3.577069275802E-02 1.258268120622E-01 -1.227037510506E+03 4.223421507916E+02 -4.142725723874E+00 4.509637583589E+01 -3.241746635490E+00 1.851576886012E+00 3.705899619240E+01 -6.106308008121E-01 2.984303050079E-01 3.103034731181E+03
 1.837154116691E-02 6.431739622856E-03 1.245040841282E-01 -1.274979194766E-02 -5.481441544699E-02 5.987238431327E-02 6.953550071831E-02 -3.127476839868E-02 -1.174574677928E-01 1.718034993353E-02 2.252241242951E-02 -6.490352718515E-02 5.908248475049E-02 4.748476540708E-02 1.341211735446E-01 2.150592308404E-02 4.243606862312E-02 1.704698614831E-01 -6.430926563639E-02 -4.455583889452E-02 1.253015825030E-01 8.750732801915E-02 -4.621018859493E-02 1.316994273449E-01 -1.232095055868E-01 7.581543087874E-02 -7.630156730558E-02 -4.802954652794E-02 -5.350540031680E-02 4.985499421628E-02 4.038551756961E-02 -5.911367470402E-02 -8.071030057303E-01 -5.621772053673E+02 -8.812955771153E+02 3.022483879270E+01 -8.157757900050E-02 -4.400792685476E-02 -2.107412883427E-02 4.107127669834E+02 -7.135897681498E+02 1.401615330980E+01 -8.407748449834E+01 3.135639320224E+00 1.326232276603E+00 6.698437078103E+01 -9.663765147721E-01 8.973701304097E-01 1.269313916423E+02 2.537772015512E+03
 -1.025198708525E-02 -1.211456218934E-02 -3.481636799739E-02 -3.294409620090E-02 1.004529088619E-01 4.532444604689E+00 1.602496881603E-03 -1.117650403039E-02 -9.010657750153E-02 -7.153793319028E-03 7.758855786342E-03 -6.591100420179E-03 8.692264104288E-03 -1.044001190916E-02 1.222236993546E-01 -1.301055957012E-02 -1.026724767087E-02 1.029159892454E-01 -5.443373991533E-03 -8.786985346601E-03 9.098622179019E-02 4.697821607044E-02 -8.536033701187E-03 1.236679356647E-01 -1.701177322435E-02 1.750896685318E-02 -1.529160349555E-01 -1.004381734751E-02 -3.328338899693E-03 2.232271961476E-01 -3.063409892647E-01 -3.076616708775E-01 -9.648220991359E+00 3.073128288637E+01 2.940532724225E+01 -7.246273722804E+01 5.542689931149E-02 1.044335443206E-01 4.283066418971E+00 -3.565445495039E+00 1.386722389250E+01 -7.476861818353E+01 2.746667017932E+00 5.361531686363E-01 9.136118333504E+00 -1.410577163861E+00 2.924546888242E-01 1.025804552008E+01 -2.989588060725E+01 -7.143943172711E+01 1.524540558013E+02
 6.696795956410E-02 7.608579372936E-02 7.345687474036E-03 -1.197620258158E+03 4.373655521074E+02 -6.994856360374E+00 1.033323115533E-01 1.475233032663E-02 -2.139921655039E-01 7.086969608199E-02 2.621345420131E-02 -5.245853911576E-02 1.195785342507E-01 1.671398239574E-01 1.802275412485E-01 3.965195370714E+01 -4.204569853517E-01 3.599213018970E-01 -1.233531509223E-01 -8.609546432283E-02 1.973721403781E-01 -1.969822766847E+01 3.532556643972E+01 -2.727640886620E-01 -1.598251700406E-01 1.305118626683E-02 -1.754071378038E-01 -1.097961739496E-01 -1.059949936392E-01 2.618372299457E-01 1.119180334546E+00 -2.731819592196E-02 -3.550928357002E-01 3.307552668212E-03 5.878829609664E-01 -1.937930656433E-01 2.257488542198E-02 -3.636441762651E-02 -3.565051576423E-03 -1.203843459561E+03 -4.143979695804E+02 1.226426514532E+01 -2.239353629999E+00 -2.064374455098E+00 1.370971401261E+00 3.667186642931E+01 -9.655522610821E-01 7.349106412429E-01 -1.842008741794E+01 -3.275179546779E+01 8.974150579984E-01 2.762717414903E+03
 1.059867599000E-02 1.941154768265E-02 5.354183611444E-02 4.429189353383E+02 -7.300030728102E+02 1.149202539397E+01 4.117377869806E-03 4.068200505070E-03 6.035030143020E-02 -1.010353866190E-03 7.061954182739E-03 8.828283088013E-02 -1.151416789631E-02 -9.284443662503E-04 -6.718470641116E-02 6.582185304497E+01 -7.019050545318E-01 1.888968734824E-01 -1.226585967530E-02 1.214840134471E-02 -4.909721239578E-02 -3.279948687029E+01 5.881305396348E+01 -8.844773548068E-01 2.105637313573E-02 -3.162618877870E-02 6.745002844401E-02 3.855318060215E-03 1.137793510770E-02 -8.905418221183E-02 1.627651050705E-01 -9.430791969026E-02 2.011351420809E-01 2.913456530076E-01 2.128092049265E-01 2.151576709233E-01 -2.101349190886E-03 -2.156292677997E-02 -1.296468413150E-01 -4.139678935509E+02 -6.960472465296E+02 1.448408829988E+01 -4.840942160938E-01 -4.646559668045E-01 3.802632349124E-02 -6.589180840802E+01 9.209172528583E-01 2.232986698449E-01 3.223833787497E+01 5.842505292052E+01 -1.141789423071E+00 3.097618275305E+01 2.799333320249E+03
 5.124224919307E-02 4.006508662601E-02 5.258700371139E+00 -7.180771077563E+00 1.149131908571E+01 -8.138566204186E+01 5.630869694625E-02 1.316337405471E-02 5.333771599380E-01 4.358397027289E-02 6.001647943738E-02 4.470420981382E+00 1.642565829843E-02 7.089099824514E-02 -7.460073547557E-01 -8.811171502556E-01 2.963600530018E-01 8.585169746991E+00 1.741834304180E-02 -7.646585012779E-03 -5.085810134247E-01 4.744432795998E-01 -7.612316847495E-01 8.228580697336E+00 -8.046718216324E-02 5.836853975866E-02 1.231792049322E+00 2.191078988131E-02 -5.807665115095E-02 -1.972020773292E+00 -8.071144234805E-02 3.618514038404E-01 2.203535564703E+00 1.467053693253E+00 8.121414815256E-01 9.967480145920E+00 -8.238298357504E-02 -2.466640883095E-01 -9.836918556066E+00 1.253555026941E+01 1.465353919177E+01 -8.167562697023E+01 -8.038067912739E-01 -1.181716739033E+00 -6.229251700825E+00 9.845978457786E-01 6.167405833937E-02 8.915442100185E+00 -9.676098457936E-01 -8.234498189051E-01 9.083004398136E+00 -7.083671885465E+00 -5.662746931401E+01 1.896853074724E+02