#BIOSYM hessian 1
@Type: Hessian Update
@Units
 distance: 	A
 energy: 	Kcal/Mol
#header
@natom 69

#label
C1      C2      C3      C4      C5      C6      C7      C8      C9      C10     C11     C12     C13     C14     C15     C16     C17     C18     C19     C20     C21     C22     C23     C24     C25     C26     C27     C28     C29     C30     C31     C32     C33     C34     C35     C36     C37     C38     C39     C40     C41     C42     C43     C44     C45     C46     C47     C48     H49     H50     H51     H52     H53     H54     H55     H56     H57     H58     H59     H60     H61     H62     H63     O64     H65     H66     H67     O68     H69

#element
C  C  C  C  C  C  C  C  C  C  C  C  C  C  C  C  C  C  C  C  C  C  C  C  C  C  C  C  C  C  C  C  C  C  C  C  C  C  C  C  C  C  C  C  C  C  C  C  H  H  H  H  H  H  H  H  H  H  H  H  H  H  H  O  H  H  H  O  H 

#matrix
207
 2.782074470930E+03
 -2.403239442924E+01 2.800410545668E+03
 1.743697518499E+01 -2.026667542802E+01 1.914131462177E+02
 3.866501884578E+01 6.391789744113E+01 -5.263557847147E-02 2.812620286654E+03
 -1.007604360586E+00 8.000732713590E-03 -5.271713721872E-02 -3.378264570493E+01 2.768528400769E+03
 9.271793956721E-02 2.232702683985E-01 8.696897621231E+00 1.747632074580E+01 -1.963314136365E+01 1.921621797342E+02
 -1.863189485669E+01 3.807083158560E+01 -4.608666888397E-01 -6.751937510655E+00 1.738566566666E+00 -7.588296219989E-01 2.816073687510E+03
 -3.098894608051E+01 6.185529925921E+01 -8.173297814904E-01 -2.548730690909E+00 3.865509277219E+00 -8.438205838597E-01 3.304920351004E+01 2.752917672923E+03
 3.853520074966E-02 -6.591493807127E-01 9.131371552489E+00 1.104125720992E+00 7.241037811105E-02 8.782077935201E-01 8.087928705180E+00 -2.682083100172E+01 1.883754263625E+02
 3.502714287459E+01 -6.876077176288E+01 1.024184616403E+00 -1.833872254120E+01 3.117311590177E+01 6.794167860142E-01 3.470686672543E+01 7.023633220523E+01 9.016607673415E-01 2.798865631358E+03
 1.531095486367E+00 2.509195863863E+00 -2.802001293206E-02 -3.326254935119E+01 6.330808128507E+01 -1.387048437519E+00 4.571193191993E+00 -2.686497177790E+00 -1.087930481280E+00 1.478394799043E+00 2.801269290844E+03
 2.824578798946E-01 -6.010973638188E-01 8.781817225275E+00 5.979222085795E-01 -1.498019994391E-01 8.861472724428E+00 -6.770841381533E-01 -2.002308856915E-01 9.228460620434E+00 1.542308539000E+01 -2.027200648253E+01 1.938273200613E+02
 -1.721496607350E+00 1.512755965288E+00 3.081844898566E-02 -6.487577802012E+00 -3.109631995016E+00 2.951889107458E-01 5.395002092872E+01 -7.360350018562E+01 8.836323425785E-01 -3.185776751448E+01 4.822006693476E+01 -1.357102799512E-01 2.598380075246E+03
 6.768068477906E-01 9.506594481402E-01 -7.291687220300E-02 -5.758640665268E-01 1.538038069294E+00 -3.533130767279E-01 1.919577766077E+00 5.158571038075E-01 -3.884720374630E-01 -3.410913947677E+01 6.010336462688E+01 -3.392319058448E-01 -1.694399288780E+02 3.051909476505E+03
 -6.724732863192E-03 -6.094658917803E-01 1.706569589021E-01 1.373238980568E+00 4.028957190861E-02 3.815993618227E-01 -1.283935856106E+00 -1.714713467088E+00 1.264611809896E+01 1.542448863372E+00 -1.747255983498E+00 1.097384920101E+01 5.979089897078E+00 -2.160685701484E+01 1.508468172355E+02
 -1.226791682991E+03 4.496237008516E+02 -1.121613972738E+01 -4.628554412452E+02 -1.120545724317E+01 -2.801434959376E+00 1.822114723926E+00 3.552825305722E-01 -3.121898365819E-01 1.141828682277E-01 -2.418526463123E-01 -1.430422403510E-01 2.283941425632E+00 5.244809097022E-03 -4.146913629831E-01 2.809375840312E+03
 4.430045715615E+02 -7.403579291383E+02 7.849579708227E+00 -1.323509002986E+01 -1.423884550672E+03 9.332177500137E+00 1.580760750874E+00 3.329657466343E+00 7.386262356626E-02 -3.328845186010E+00 3.360077564227E+00 -1.587513633863E-01 -2.469591434126E+00 1.313649571256E+00 7.426414256102E-03 -6.617561392013E+00 2.759415446459E+03
 -1.174785092230E+01 7.445389448838E+00 -8.299441352960E+01 -3.172443314041E+00 9.058880318354E+00 -8.040703227546E+01 -1.197116844205E-01 -2.386574693525E-01 4.525144746419E+00 3.003136671104E-01 -4.350951665337E-01 -8.885424262105E+00 1.347436357274E-01 -2.331723372803E-01 2.832899647796E-01 2.419442191741E+01 -1.505751827070E+01 1.913424305434E+02
 -1.196388560627E+03 -4.061642686570E+02 -3.916133386328E+00 -3.765478996365E+00 2.890535902768E-01 -2.861863420539E-01 -1.236663417481E+03 4.489697613521E+02 -9.172939023999E+00 -4.735934359099E+02 -4.793417120452E+00 -2.247398070606E+00 -4.605372701941E-02 1.604930968782E+00 -3.836206229932E-01 -1.808880419799E+01 -3.209869271665E+01 -7.133756893575E-02 2.794487554664E+03
 -4.083320415844E+02 -6.896516509962E+02 2.214383074836E+00 1.883306046172E+00 -3.486902549217E+00 5.147290786388E-01 4.478986790072E+02 -7.375247446615E+02 8.944811253770E+00 -1.340423102233E+01 -1.457887300423E+03 1.119761430222E+01 -9.014298157662E+00 4.620892522660E-01 1.330688902799E+00 3.440555640137E+01 5.528320418134E+01 1.439258477243E-01 -3.345877307885E+01 2.765350708934E+03
 -3.510847801825E+00 1.671659456173E+00 -8.039232579576E+01 7.897862075371E-01 2.283643904364E-01 -8.719668349189E+00 -9.584244857811E+00 6.592201479292E+00 -8.255925805878E+01 -1.389338975305E+00 9.539001206692E+00 -8.217766579488E+01 3.004987924812E-01 -4.813313871371E-01 -1.024087760391E+01 -7.142952061193E-01 -5.613135636860E-01 8.774611050726E+00 1.420324301653E+01 -1.844651990410E+01 1.911117864613E+02
 2.267274427241E+00 2.606661100282E+00 -4.639263551157E-01 -1.227835346096E+03 -4.127727680601E+02 -5.209886544897E+00 6.645555828326E+00 -2.347610163005E+00 -1.526303809710E+00 -1.212140734894E+03 4.347356360822E+02 -1.035910942786E+01 1.350418633755E+01 -1.517302474142E+00 -2.131662706289E+00 3.642583739796E+01 4.014330462655E+00 -1.038125050503E-01 4.515021282273E+01 2.496553525244E+00 -7.714500380111E-01 2.800015566047E+03
 -8.335924039265E-01 -1.392567354476E+00 1.537285884662E-01 -4.204254206961E+02 -7.053590487386E+02 2.507226169907E+00 -3.578820100268E+00 -2.527887854568E-01 6.326388274234E-01 4.420612040484E+02 -7.365611369610E+02 8.024939305367E+00 -5.164804241381E+00 1.589975103038E-01 1.023783562592E+00 -6.676565487720E+01 -1.020650315514E+00 -3.017410277408E-01 6.532300906757E+01 -7.237748051383E-01 8.140260373186E-01 1.032060032248E+00 2.798587513590E+03
 3.458673867492E-01 -4.000729132115E-01 -9.197180752618E+00 -3.027915737988E+00 2.648390608077E+00 -8.250731268545E+01 -6.026988081483E-01 -5.732835123163E-01 4.685056692736E+00 -9.843755126244E+00 7.133555907045E+00 -8.310769439198E+01 2.709088626469E-01 -1.850119920736E-01 4.379565767269E+00 3.415391964870E-01 1.346290497338E-01 8.882930198361E+00 -2.943011233491E-01 8.441414418333E-01 9.016519129350E+00 1.585377020790E+01 -2.158655743399E+01 1.947696197127E+02
 -2.804408090019E+00 1.740335700001E+00 6.522687266857E-02 -9.034743822312E+00 -5.206052731064E+00 4.602716952958E-01 -1.237221386881E+03 -4.302371307542E+02 1.628205531667E+00 -1.532542783454E+01 1.586779807761E+01 2.192092084398E-01 -5.818974113744E+02 -3.723241065438E+00 2.656329192616E-01 3.271736719764E+00 -4.176725164208E+00 1.988066664305E-01 -2.242762000726E+01 -5.023707703319E+01 9.137112958834E-01 2.011108179786E+01 -7.501092262571E+00 5.557402528593E-01 2.578839309955E+03
 -1.151151482746E+00 -2.296383928495E+00 2.066881574561E-01 2.409079440337E+00 -2.771737683670E+00 6.488202326483E-01 -4.655400856807E+02 -7.714113833090E+02 5.673804724399E+00 -1.316207258005E-01 8.955623867196E-01 1.383794379389E-01 -2.625177665087E+01 -1.814659283947E+03 1.380837418402E+01 -4.254756653529E-01 -2.403402858044E+00 3.237100456102E-01 3.211139928562E+01 6.153278057842E+01 4.176773610776E-01 9.037833593783E-01 5.360154668992E-01 4.583435649803E-01 1.805158011860E+02 3.027453167344E+03
 1.163402557878E-01 -9.149588950485E-01 4.420947438774E+00 2.263921627879E+00 9.221178695060E-02 -8.029783216172E-01 -8.613806647459E-01 1.887982297536E+00 -7.864975144557E+01 2.566346980457E+00 -2.529143940482E+00 -9.934360767289E+00 2.718477558795E-01 1.123572860908E+01 -7.038672730608E+01 -7.440992084957E-01 9.099418987629E-02 6.846084477263E-02 -1.203017896667E+00 1.714247486235E+00 9.566441710169E+00 -3.335115144152E+00 1.567396659913E+00 1.108909909478E-01 2.969323017654E+00 -1.766078183951E+01 1.541231232505E+02
 1.069692953510E+00 2.809708116634E+00 -2.483865234753E-01 -3.776284990079E+00 2.647363056680E+00 -8.948714747581E-01 6.790272943897E+00 2.804466003814E+00 -1.175382829395E+00 -1.233347506935E+03 -4.319253170244E+02 -3.842949380681E+00 -1.258493612071E+03 4.674214417505E+02 -7.040384029579E+00 8.418632134341E-01 2.310699115655E+00 -1.885474843275E-01 4.276981657903E+01 -2.280571895830E+00 -5.199433082028E-01 -1.906142522997E+01 -3.538627390513E+01 -4.095458912270E-01 6.098034755336E+01 -3.177228550861E+00 -1.972592684080E+00 2.857767643639E+03
 -1.147292586293E+00 -4.367691390383E+00 3.119014793850E-01 6.861794457669E+00 -3.316791584227E+00 1.186050388832E+00 -1.069679615460E+01 -6.094961346627E+00 1.454857785885E+00 -4.266467483053E+02 -7.298441609196E+02 2.497827763584E+00 4.491437678160E+02 -7.925395588588E+02 7.528667601353E+00 -1.695869622763E+00 -2.872469183289E+00 3.816469168624E-01 -7.394947675533E+01 5.360655925921E+00 6.108836184277E-01 3.081794394276E+01 6.265452777788E+01 3.587965125282E-01 7.486828459743E+01 4.387163571394E+00 3.415924428012E+00 -4.864804876890E+01 2.893976989997E+03
 4.738489038945E-02 7.632432457037E-02 4.220615543236E+00 -6.987925021653E-02 3.930335787343E-02 4.074639256556E+00 9.539723113392E-02 -2.496731117750E-01 -1.117466873676E+01 -2.551423101621E+00 1.994945828931E+00 -8.483580858363E+01 -5.893987122264E+00 5.557595175862E+00 -7.783696805464E+01 1.040289646495E-02 1.972535801054E-03 -7.419753608395E-02 5.063628120045E-01 1.348485387862E-01 9.568818583553E+00 -4.810684834594E-01 -7.422273967324E-01 9.302324079881E+00 -3.364588249931E-01 1.880153643702E-01 1.169296354469E+01 1.061181430520E+01 -1.382308305717E+01 1.857276927098E+02
 4.323718378546E-01 8.017894355783E-01 1.233440507947E-01 -1.442153334070E+00 1.849031300775E+00 -4.950405310669E-01 2.499894975198E+00 6.217053528597E-01 2.006160781125E-02 1.790892460203E-01 -8.200486589610E-01 -4.037187459144E-01 3.976461089083E+00 1.330604467382E-01 -1.168392550951E+00 1.913991149142E-01 1.506409369849E+00 -7.690137533541E-01 2.215836398841E+00 -7.676505540637E-02 -6.614637777354E-01 -5.972717523167E-01 2.793931569757E-01 -1.357338096545E-01 5.889237313305E+00 -7.605878253059E-01 -1.654380982731E+00 1.399258929666E+00 -2.441130326272E+00 1.411221052780E-01 2.810792751043E+03
 9.268418105115E-01 7.138845418076E-01 -4.280467403919E-01 8.525082641047E-01 1.716158509584E+00 -4.489423796345E-01 1.378769606462E+00 -2.075786491230E+00 -7.048089334546E-01 2.787608814091E+00 -2.860671998665E+00 -1.912225269153E-01 4.868175025254E+00 -1.017072970940E+00 -5.396356849233E-01 -4.652728634659E-01 1.334350383478E+00 2.509705150397E-01 1.077251282718E+00 1.945767936878E+00 -1.277031001043E-01 -3.747998652375E+00 8.908987916196E-01 -5.241899561860E-03 7.302761902959E+00 1.363137783789E+00 -7.428531945665E-01 -7.614478880576E-01 -1.983531764834E-01 6.786386023673E-02 -3.915577886478E+01 2.779040188116E+03
 -1.571952959284E-01 3.836503066924E-02 -3.902113717521E-01 -5.235844567744E-01 2.942948209439E-01 -7.176612402169E-01 2.246770085138E-01 4.312135793943E-01 -2.918866628379E+00 -5.877924521368E-01 4.036453010731E-01 7.002219595836E-01 -1.525455609661E-02 2.650137419490E-02 1.503418569749E+00 2.126836137514E-01 -3.241626186278E-01 5.719292431468E+00 3.689179789425E-01 -4.704365611164E-01 3.865399955951E-01 9.254855530716E-01 -5.012647717200E-01 -1.942682161877E-01 -3.318764720934E-01 -2.695153953969E-01 2.375720976012E+00 2.932237076230E-01 -5.515615697226E-01 1.923747304611E-01 4.364971512987E+01 -1.414358114502E+01 2.004433068891E+02
 -7.477455110781E-01 1.329565001772E+00 4.151209624011E-01 -4.422343026383E+00 -7.983654932619E-01 -5.655964104772E-02 3.253886419223E+00 5.850036821656E+00 -1.756382771747E-01 -5.667626595470E+00 5.516081413253E+00 -4.404239186500E-02 -3.149842318608E+00 2.317189706803E+00 -1.488486796277E-01 1.392460371026E+00 -6.375676115541E-01 -3.921272255017E-01 1.121099061022E+00 -5.164011992638E+00 -3.786389650564E-01 7.272627307437E+00 -2.799517376883E+00 -2.750469039059E-01 -5.621203749752E+00 -4.238358024470E+00 -7.917746831416E-02 4.289667407770E+00 -5.409273514385E+00 8.569094449086E-02 4.704756639623E+01 8.059220744319E+01 1.646181527468E-01 2.732566207455E+03
 1.613078479246E-01 -1.748295691881E+00 3.636398082833E-01 3.471753335625E+00 6.581099035952E-01 7.962383620229E-02 -3.767292218430E+00 -4.569722134058E+00 3.846190161487E-01 4.378496448772E+00 -4.487809035859E+00 1.699552082245E-01 1.746016256471E+00 -1.644579364022E+00 1.987928386893E-01 -1.135088413932E+00 3.403211119980E-01 -3.786741376946E-01 -8.059243902985E-01 4.173847303852E+00 -1.955896044391E-01 -5.545196804506E+00 2.807748282148E+00 -1.301382493714E-01 3.405742120479E+00 3.418127289969E+00 2.666767780125E-01 -3.646678253301E+00 5.293537358736E+00 6.977632699233E-03 -7.124241372381E+00 -2.437697983494E+00 -2.010631203033E+00 2.569989960048E+02 2.937246743267E+03
 -2.280786454378E-01 5.779984730668E-01 1.412062811219E-01 -1.897061480012E+00 1.822379528138E-02 4.963101963153E-01 1.507186238978E+00 2.161878249753E+00 5.193073764130E-01 -2.031267347402E+00 1.851247329359E+00 -1.357149318925E-01 -4.862924975568E-01 7.325628112181E-01 5.337189356729E-01 5.799701924723E-01 -6.365721944497E-02 2.965797424231E-01 7.409113284117E-01 -1.876071209954E+00 3.557704047223E-01 2.687361701848E+00 -1.130430568348E+00 -2.436770468791E-01 -1.185337559897E+00 -1.594219055346E+00 -1.127555735010E+00 1.628374937688E+00 -2.317082362587E+00 -6.144474536216E-01 -1.639919025929E-01 3.832269602186E+00 1.259056463311E+01 5.786708918562E+01 3.368757986619E+01 1.498890336109E+02
 -1.963062818418E+01 -3.256243838879E+01 -4.080363139621E-01 3.584601358517E+01 7.000156143663E-01 -2.002449545513E-01 2.781310800787E+00 1.320153899922E+00 -4.981290235479E-01 -7.463430619129E-01 4.385507979459E-01 -2.739198592448E-01 2.419920173270E+00 3.621984363136E-01 -7.142201582590E-01 -1.238871265943E+03 -4.257182864047E+02 -9.827749496995E+00 1.555641890783E+00 -9.434011327170E-01 -3.821938359359E-01 7.194537224683E-01 -6.207721670085E-01 -8.456851702020E-02 3.343839012032E+00 -1.186306298563E+00 -8.704951992231E-01 1.722289294515E+00 -2.971573433806E+00 8.784871913189E-02 -1.913168690577E+01 3.406857497151E+01 -1.950604308773E-01 1.561572437589E+00 -1.850264386474E+00 5.411439265078E-01 2.777523239540E+03
 3.554392193125E+01 6.040874230130E+01 1.540943610787E-02 -6.812161120134E+01 5.331446969198E-01 -4.983049976735E-01 3.944591120159E-01 1.264429816552E+00 1.569122618755E-01 -1.264981902850E+00 1.237051294367E+00 -5.479664894565E-02 -9.231703891292E-01 5.020569994476E-01 6.216951306505E-02 -4.308015361006E+02 -7.125735165317E+02 -1.061589443836E+00 1.716584186398E-01 -1.144080963001E+00 1.309079633945E-01 1.676239533126E+00 -5.601648615742E-01 1.294685757092E-01 -1.600118697462E+00 -8.756859876036E-01 -1.773336766777E-01 8.059562392557E-01 -9.554826441304E-01 -5.871700358669E-02 -3.279926352438E+01 5.806441620150E+01 2.665346495384E-01 -9.641363417067E-01 -7.888919765041E-01 -7.092349259216E-02 1.153907805909E+01 2.796952545759E+03
 -2.278040281625E-01 -2.012522360618E-01 9.755755359223E+00 9.204768530683E-01 9.513497673921E-02 9.605837770099E+00 3.696925843532E-01 2.580076522524E-01 1.527210834389E+00 -2.645266668964E-01 3.381278664456E-01 -3.998018767147E-01 -1.094025039512E-01 5.060995872897E-02 -4.040554728241E-01 -1.035356936980E+01 -1.258120823364E+00 -8.255442271407E+01 5.937066489977E-02 -2.525848312184E-01 4.709420942367E+00 2.818953425606E-01 -2.278624623038E-01 4.659309347414E+00 -1.412358233293E-01 -1.429877018815E-01 -1.537050154205E+00 3.163919519964E-01 -3.943987793346E-01 -3.276569258572E-01 4.037153026164E-01 1.938668102798E-01 5.406814878523E+00 2.448863105416E-01 2.930547680503E-01 3.477726938204E-01 2.801560239474E+01 -1.580395910421E+01 1.921564216144E+02
 1.364357648827E+00 3.041407609391E+00 -1.073135824312E-01 -2.265304796810E+01 -2.747252200280E+01 -8.678086917220E-01 7.564676787388E+00 2.141753503375E+00 -1.304453124180E+00 -3.051510402129E-01 -5.736471543714E-01 -6.291744990770E-01 8.762317469889E+00 3.816621030740E-01 -1.862292356716E+00 7.019008377305E-01 3.102855668578E+00 -3.837776986362E-01 4.650178137013E+00 -1.257836764981E+00 -1.011193410296E+00 -3.549789907412E-01 -9.047566706848E-01 -5.983435845252E-01 1.242112331871E+01 -2.186645534582E+00 -2.775351271242E+00 3.842963673941E+00 -7.356702339917E+00 1.569278359577E-01 3.803025930746E+01 -6.851756212111E+01 1.321472891706E+00 -1.910568016163E+01 3.477663155708E+01 2.475107256329E+00 4.130053417419E+01 6.694680327351E+01 8.144368857418E-01 2.813274373046E+03
 -8.479420716787E-01 -2.133787294434E+00 2.971067868810E-01 3.664928884868E+01 5.368700947635E+01 3.535872832762E-01 -5.170158905734E+00 -1.871650038565E+00 9.399735047547E-01 7.070408435866E-01 -2.160393265698E-01 4.069532117884E-01 -5.182639618517E+00 -4.303980646601E-01 1.176719721740E+00 -4.971322052889E-01 -1.849524437144E+00 5.644944384085E-01 -2.924053635211E+00 1.310917856867E+00 6.384188621582E-01 -4.468580321539E-01 9.185482281883E-01 4.601294526845E-01 -7.219879943832E+00 1.760128674534E+00 1.647054385587E+00 -2.819341783548E+00 5.208910116581E+00 -1.328938590747E-01 -9.509548269720E-01 1.153963753898E+00 -7.718634762783E-01 -4.526384690654E+01 7.688783954197E+01 -2.914891012202E-01 -1.630796436836E+00 -1.124235282675E+00 -5.033095414343E-01 -6.620612331048E+01 2.753562078472E+03
 -7.106751678221E-02 -1.972322687190E-01 1.285548840280E-01 1.081796339835E-01 -8.162657748991E-01 7.172438736022E+00 -3.535856197888E-01 -2.764738089936E-01 -1.938737768509E+00 3.632317707775E-01 -3.176192738865E-01 5.608214337356E-01 2.097729631220E-02 -2.784596263208E-02 4.816153215082E-01 -2.741117695769E-01 -3.308137861080E-01 -8.761544222129E+00 -2.264386340483E-01 2.837645997180E-01 -4.508385094406E-01 -5.423015617702E-01 4.386144313928E-01 3.689999305871E+00 -8.285113349442E-04 1.281126547264E-01 2.047807347342E+00 -3.293681536686E-01 5.444565837631E-01 3.936331926899E-01 -8.290081642624E-01 -4.920196241698E-01 1.306731413250E+01 -1.119220258022E+00 1.242395924733E+00 1.219287194131E+01 2.115993141629E-01 6.313426116273E-01 6.511187783950E+00 7.688109420951E-01 6.879464689604E+00 1.885632306039E+02
 9.054924422131E-02 6.937354165064E-01 -1.254142376242E+00 4.240251710375E-01 -2.607447729479E+00 1.273272241556E-01 3.147300036966E-01 9.003046621940E-01 -1.227840252859E+00 -1.727273821865E+00 2.864905049084E+00 3.791240053380E-01 -4.299226181674E+00 2.138632053996E-01 1.167309617551E+00 2.307849617652E-01 -1.546346406167E+00 1.827609079283E+00 -2.496398022133E+00 -1.576283512943E+00 1.326471779310E+00 2.453604072370E+00 -2.271027351530E+00 5.342563614776E-01 -6.737022207976E+00 -5.337688981832E-01 2.307363646186E+00 1.436572118345E-01 -6.489306136893E-01 -5.118824328752E-02 -1.258086704306E+03 4.439814638111E+02 -1.733575619951E+01 -5.044101349944E+02 -1.051409390286E+01 -8.993791917699E+00 1.580772550108E+00 3.180122586402E+00 -2.539434406408E+00 6.396790230307E+00 -1.092078978103E+00 1.841689653410E+00 2.516659143659E+03
 1.887216829329E-01 -1.043322877616E+00 7.083846696410E-01 3.126027969347E+00 -6.322303253643E-01 8.363392344368E-01 -2.862669820637E+00 -3.545893659249E+00 -2.900505487364E-01 3.261782782134E+00 -2.706826639786E+00 6.304814048503E-01 -1.544839008115E-01 -1.332432606946E+00 1.720739228162E+00 -1.035365661252E+00 -3.932693161806E-01 2.800783650664E-01 -1.820885187451E+00 2.851090253399E+00 1.722073201227E-01 -3.892851310688E+00 1.389585013894E+00 -1.155641930044E+00 -6.535138971947E-02 2.817044072187E+00 1.151570791948E+00 -3.275819667870E+00 4.349437673593E+00 -6.732881959000E-01 4.795688408853E+02 -7.510088503370E+02 5.879376687982E+00 -5.007041985501E+01 -1.641005078829E+03 -2.078493479297E+01 -5.789980578773E-01 5.466992571080E-01 -1.216903051277E+00 -3.504831029618E+00 3.144598246481E+00 2.307372243761E+00 -1.441977087980E+02 2.754822989463E+03
 1.907500710638E-01 4.783452757331E-01 -9.063100786069E-01 -7.112410954165E-01 -2.389345864105E-02 -7.945181848531E-01 9.051317416399E-01 7.096192431901E-01 -4.237911994738E-01 -8.744523852054E-01 8.566886440165E-01 -2.748317895536E-01 -3.040749132281E-01 1.923120603597E-01 -1.109991068957E+00 4.840719286065E-01 9.787134011532E-02 3.469421994692E-01 2.205361244518E-01 -7.467193393405E-01 1.790412926689E-01 1.150197308896E+00 -7.729276056213E-01 1.332240821772E+00 -3.806758881993E-01 -4.336599976464E-01 4.087266333005E-01 8.748138653385E-01 -1.291123012055E+00 8.607677289630E-01 -2.396230003780E+01 6.629234621556E+00 -8.726247434019E+01 -1.430881639847E+01 -2.409531276776E+01 -7.812472570885E+01 7.595397602423E-01 6.878156266714E-01 4.838964675960E+00 2.246291144077E+00 -2.132327530247E-01 -1.210609736088E+01 8.921951814634E+01 4.151241597553E+01 2.430917671983E+02
 -1.078908789651E+00 -1.028016003537E+00 -1.306220575125E-01 1.573167495705E-02 -2.318418967934E+00 6.402442237263E-01 -2.732741192303E+00 1.471182700883E+00 6.277305438555E-01 -2.386566654362E+00 2.824115932738E+00 2.872948847838E-01 -6.230001171310E+00 8.182991465462E-01 9.987252854834E-01 -1.919341046436E+01 3.271076565858E+01 -3.720520371124E-01 -2.051986096783E+00 -1.703017132357E+00 5.891668110073E-01 3.548748109065E+00 -7.885296738015E-01 4.125816172131E-01 -9.429787841963E+00 -6.589454575321E-01 1.455454322477E+00 -2.297444017464E-01 1.612418789313E+00 -2.526329963273E-02 -1.205551961374E+03 -4.163980890014E+02 -1.668729632320E+01 -3.538983992394E+00 2.503625544551E+00 -1.110639635052E+00 -1.180900346140E+03 4.287482874746E+02 -1.455136323493E+01 -4.660882555486E+02 -1.799032728345E+01 -2.208383737109E+00 -2.116490881027E+01 -3.316814014961E+01 -4.390956049901E-01 2.737939189597E+03
 -5.469070873209E-03 -5.641751291696E-01 2.089545276193E-01 1.074731088047E+00 -1.376141230288E-01 1.477898659924E-01 -1.310553951537E+00 -1.235857427233E+00 6.927468758098E-02 1.105210858356E+00 -1.044037623942E+00 1.591868224886E-01 -1.328259443301E-01 -4.205244631801E-01 2.591095861601E-01 -3.292705099008E+01 5.811059449817E+01 -8.259841802612E-01 -5.349404682256E-01 1.067465569656E+00 1.552880580872E-02 -1.335201139122E+00 7.141936493048E-01 -9.994643390060E-02 -2.006463117759E-02 9.918305155425E-01 3.649125295419E-01 -1.152814882633E+00 1.739263087109E+00 8.578923245750E-04 -4.243595708077E+02 -7.021867628694E+02 -4.982469085825E+00 -4.964698404985E-01 2.056980123688E-01 -7.543137386609E-01 4.295985044551E+02 -7.197459002422E+02 7.519427670925E+00 -8.392101264635E+00 -1.468769778321E+03 -2.989892968948E+00 3.775457489781E+01 6.139598819028E+01 -1.868210631085E-01 -2.858701202526E+00 2.772656422775E+03
 1.662519619455E-01 2.776935448986E-01 4.682373520440E+00 -2.246242240383E-01 -1.705790921839E-01 -8.020193561030E+00 3.583941155337E-01 3.401266024192E-01 1.922938131588E+00 -3.344986232286E-01 3.183808172878E-01 -4.636124455961E-01 -2.563712173135E-01 6.658324084974E-02 -3.625176346064E-01 -1.233504446754E-01 1.627538752387E-01 8.592010376318E+00 -4.220589325914E-02 -2.973200136321E-01 2.497967443270E-01 5.608604949625E-01 -2.006867595308E-01 1.904172073812E-01 -3.969846704532E-01 -1.802516668353E-01 -1.900466485255E+00 3.284882448474E-01 -3.470324533357E-01 -4.841230276730E-01 -1.401346616895E+01 -4.777997071571E+00 -8.410481600828E+01 2.283293321870E-01 1.026175318361E+00 -1.020556388937E+01 -1.496315990213E+01 7.191790344853E+00 -7.858149214578E+01 -2.373509827540E+00 -3.083954877026E+00 -8.368641705271E+01 -3.624583138973E+00 -2.236874883929E+00 1.115300457547E+01 3.271612527173E+01 8.273516527257E-01 1.904831156034E+02
 -2.161244720220E+00 -1.012411723359E+00 1.706236571495E-01 -2.181478007624E+00 -4.685178636678E+00 8.529218732023E-01 -2.656414213045E+00 5.601184979287E+00 1.027772911943E+00 -7.251111772804E+00 7.960618863569E+00 4.665509377517E-01 -1.249855262489E+01 2.588705761187E+00 1.712625263543E+00 1.173510178508E+00 -3.796142426996E+00 3.656518916588E-01 -3.132095443724E+00 -5.592931603846E+00 9.013144898338E-01 9.947168302424E+00 -3.110232865200E+00 4.039566673505E-01 -1.918712887042E+01 -3.568576889494E+00 2.394498840020E+00 2.038502283147E+00 -3.937692930027E-01 -1.924598837986E-01 2.169355321332E+00 4.659454278464E+00 2.659617891105E-01 -1.448105833393E+03 -5.018379188641E+02 -2.775992394343E+01 5.958153616086E-01 -1.094021115162E+00 -4.362663870335E-01 -1.326177909750E+03 4.563450428720E+02 1.460301262509E+00 4.344800130326E+01 1.991084421527E+00 -1.764069388764E+00 3.607867236607E+01 6.040249879093E-01 -1.735727521132E-01 3.049691923390E+03
 1.541909405291E+00 -4.884883380474E-02 1.165232258595E-01 3.396202970734E+00 2.825107911804E+00 -2.517665670692E-01 9.420430317135E-02 -5.832045937272E+00 -4.321245845697E-01 6.652100140712E+00 -6.961596789474E+00 -1.375899236374E-01 8.371533196185E+00 -2.495948820453E+00 -6.586547788275E-01 -1.399929974873E+00 2.407999580039E+00 -4.244508127443E-01 1.154339362421E+00 5.551069913340E+00 -6.373349947381E-01 -9.001378652177E+00 3.042302471295E+00 -8.191549482158E-01 1.326239374059E+01 3.837013786210E+00 -1.318478484753E+00 -3.045753862633E+00 2.715852646348E+00 -1.820734669520E-01 -1.546351564838E+00 -3.471168129415E+00 8.133282334336E-01 -5.040672902351E+02 -8.437858441453E+02 -1.632636906922E+01 -1.107238983994E+00 1.185895852036E+00 -1.140512155521E-01 4.416468615435E+02 -7.523865186635E+02 -5.702301513469E+00 -8.837959664373E+01 1.759965961922E+00 -2.686138197108E+00 7.770347597582E+01 -7.489942448183E-01 -2.115710810361E-01 5.003728395656E+01 2.540041506120E+03
 -9.904412968766E-02 7.099535409871E-01 -2.181177845683E-01 -1.079000452335E+00 2.382999253773E-01 4.975383128209E+00 1.193565694947E+00 1.553473820571E+00 8.392627608075E-01 -1.313332787974E+00 1.390602567475E+00 -3.601372910460E-01 -2.891592170903E-01 5.341232821875E-01 -3.488733446643E-01 5.077601800119E-01 -2.878988342349E-01 1.412271932617E-01 4.501733432283E-01 -1.429002138950E+00 3.016543340583E-01 1.698641592627E+00 -9.038020546923E-01 4.518156518815E-01 -6.665399933985E-01 -1.108198935449E+00 -1.166500299849E+00 1.173337137635E+00 -1.825983288466E+00 -1.460208092938E-01 1.555741260964E+00 1.964917816095E-01 -1.169381112372E+01 -2.475753026674E+01 -1.651525986717E+01 -6.916598224124E+01 1.006930575872E-01 2.965316181934E-01 5.710414762137E+00 1.683641283462E+00 -7.668521145310E+00 -8.009456428697E+01 -1.647184161597E+00 -2.002010902831E+00 1.531144508538E+01 1.493247623452E-01 3.275276255923E-01 1.047548209841E+01 2.642332055121E+01 4.393766173837E+01 1.535252032384E+02
 1.238869707084E+00 5.312584581652E-01 -1.242456167020E-01 -1.238973612123E+03 4.579397233321E+02 -1.028062574213E+01 1.493796013440E+00 -3.296185574358E+00 -5.482351510701E-01 4.161534009332E+00 -4.586544753028E+00 -3.436044001582E-01 7.185330585445E+00 -1.561543550476E+00 -6.503252844091E-01 4.033914088664E+01 1.740681925687E+00 6.320144792272E-01 1.738973804822E+00 3.283786146361E+00 -2.905383124953E-01 -2.595850634673E+01 3.833148702096E+01 -8.391905941733E-01 1.101212898728E+01 2.054625557812E+00 -1.544601945127E+00 -1.228626003352E+00 2.344446457196E-01 -1.737282315088E-01 -1.517338807973E+00 -2.348841440660E+00 8.893164036251E-01 3.356820537202E+00 -2.597422747757E+00 1.464001412676E+00 -4.315756908385E-01 8.728967413765E-01 -1.425583230400E-01 -1.131496979315E+03 -3.805315706020E+02 -2.197588520934E+00 2.676502540793E+00 -7.105102446441E-01 3.899482578180E-01 3.830644765329E+01 -7.024609592691E-01 8.738153769429E-02 -1.149735306339E+01 -3.848787179706E+01 5.934844549772E-01 2.733327721379E+03
 1.038397375203E+00 4.249850855171E+00 -4.100737361969E-01 4.592075834204E+02 -7.535571998112E+02 8.009236845840E+00 1.034016070878E+01 6.188960888261E+00 -1.584069170094E+00 -4.394726132691E+00 3.576826237255E+00 -6.736478110958E-01 6.447979804691E+00 1.903610120844E+00 -1.861565859414E+00 6.901404307376E+01 1.869378255813E+00 3.272341959661E-02 5.114364200786E+00 -4.946423137418E+00 -1.019785186703E+00 -2.852944034623E+01 5.700447705923E+01 -1.539669703585E+00 8.383245851490E+00 -5.267273574992E+00 -2.740004096265E+00 6.995923301575E+00 -1.157118764319E+01 1.256596913297E-01 3.646458774052E+00 5.847246896103E-02 5.936128182915E-01 5.694560228058E+00 -3.897819577754E+00 2.363584635384E+00 2.988834060332E+00 1.070532997067E+00 4.781434448222E-01 -3.749262263259E+02 -6.668334327100E+02 1.472760308492E+00 -3.845376420919E+00 -4.645856146484E+00 2.750567488846E-01 -6.531999854393E+01 -8.870762684738E-01 2.204258228652E-01 3.196674745267E+01 5.694907237354E+01 1.685357992709E+00 -2.346291063142E+01 2.832757425954E+03
 -1.233377623446E-02 -4.986781463379E-01 4.275672351498E+00 -9.593593937057E+00 8.638212180717E+00 -8.441377634276E+01 -1.355953948075E+00 -1.471364852867E+00 -1.294786556913E+00 1.444874073905E+00 -1.319305134568E+00 4.955256213969E+00 1.461699507928E-01 -5.355398242409E-01 -3.603716091134E-01 -5.677967430281E-01 2.635979353489E-01 8.865897191935E+00 -5.622819535693E-01 1.225634586364E+00 -1.847911863834E-01 -1.624384101300E+00 8.662332839541E-01 1.033914215222E+01 5.550382458500E-01 1.172721378873E+00 1.773361267832E+00 -1.185492075751E+00 1.863207819594E+00 8.704521744036E-01 -8.743185642760E-01 -1.250867126496E-01 5.665088783494E+00 -3.201223731165E-01 3.072534451352E-02 4.242430857838E+00 5.085287745663E-02 -1.657775838493E-01 -9.743863789072E+00 -3.011748172383E+00 2.821850096801E+00 -7.939903288311E+01 1.358037634107E+00 -3.940325514889E-01 1.568534640763E+00 5.368605230906E-01 -8.342891029110E-02 6.777521691867E+00 1.041215920971E+00 -8.206933130646E-01 9.873858337002E+00 1.352426359663E+01 -3.489850732970E+01 1.895140781324E+02