#BIOSYM hessian 1
@Type: Hessian Update
@Units
 distance: 	A
 energy: 	Kcal/Mol
#header
@natom 67

#label
C1      C2      C3      C4      C5      C6      C7      C8      C9      C10     C11     C12     C13     C14     C15     C16     C17     C18     C19     C20     C21     C22     C23     H24     C25     C26     C27     C28     C29     C30     C31     C32     C33     C34     C35     C36     C37     C38     C39     C40     C41     C42     C43     C44     C45     C46     C47     C48     C49     H50     H51     H52     H53     H54     H55     H56     H57     H58     H59     H60     H61     H62     H63     H64     H65     H66     H67

#element
C  C  C  C  C  C  C  C  C  C  C  C  C  C  C  C  C  C  C  C  C  C  C  H  C  C  C  C  C  C  C  C  C  C  C  C  C  C  C  C  C  C  C  C  C  C  C  C  C  H  H  H  H  H  H  H  H  H  H  H  H  H  H  H  H  H  H 

#matrix
201
 2.780104163388E+03
 -2.344456488859E+01 2.821720702608E+03
 1.831228906218E+01 9.200996149061E+00 1.937485121911E+02
 3.926776872925E+01 6.519649949514E+01 -1.399571155817E+00 2.764477054093E+03
 -4.318467060789E-03 -9.454520786564E-01 -8.510620211371E-02 -2.166874038966E+01 2.761165955359E+03
 -5.630425968260E-01 4.638998714667E-01 1.024133686902E+01 4.354992013203E+01 -7.240523117899E+00 2.105427555230E+02
 -1.984337796539E+01 3.392269462960E+01 1.347447250250E-01 -6.271576609167E+00 1.189753646578E-01 -1.265586703569E-01 2.808197005564E+03
 -3.331049434144E+01 5.905391607740E+01 7.771493945492E-01 3.994326653584E+00 -3.569324286234E-01 4.459572588715E-01 -3.841657375337E+01 2.822463436661E+03
 -9.888894784134E-02 6.570074557913E-01 9.618937725303E+00 -9.934059770114E-01 -1.637087184242E-01 -1.854149232614E+00 4.040461561057E+00 2.982338115326E+01 1.965178321928E+02
 3.624137090204E+01 -6.938901641043E+01 -4.079371457771E-01 -2.631268828969E+01 3.573035881482E+01 -6.036949944851E-01 4.245757363714E+01 7.439167050131E+01 1.693917081968E+00 2.780749956174E+03
 2.672856257146E+00 5.088274336113E-01 -3.216215518787E-01 -3.393135588374E+01 5.850860549058E+01 4.866385292376E-01 -1.069086751035E+00 -3.706938677958E+00 -9.813921059496E-01 -1.181135800586E+01 2.809597837839E+03
 -4.559673995147E-01 -4.308161830492E-01 1.010286472742E+01 2.479813393762E+00 1.127219118608E+00 1.330211610836E+00 -1.594420475569E+00 -1.127948762132E+00 1.132024820159E+01 4.603101095043E+01 3.032757987296E+01 2.102213561560E+02
 8.550366717494E-01 1.670989142728E+00 3.696656127032E-01 1.403026836649E+01 2.652428787983E-02 2.401034897697E-01 4.487460102454E+01 -7.485150714451E+01 -1.326729217408E+00 -1.661777055103E+01 3.809922941973E+01 5.771816516814E-01 2.623143175965E+03
 8.173028447626E-01 -2.381481442036E+00 -1.080109465746E+00 -1.140915575513E+01 5.186367719001E-02 -1.572889746880E+00 -6.487060297802E+00 -4.786508703389E-01 -6.023538818311E-01 -3.363620537516E+01 5.868290740280E+01 -1.075896410300E+00 -2.159115892220E+02 2.893869614662E+03
 -2.313523233391E-01 3.462780833936E-01 -3.569705070589E+00 9.353846945503E+00 -2.787857365890E+00 -7.350410910666E+00 2.602219989707E+00 -1.325751391540E+00 8.515923069024E+00 -5.631071115299E+00 5.615604247656E+00 1.001707795970E+01 1.466636442855E+00 6.747896224412E+01 1.871640025833E+02
 -1.229151424334E+03 4.474278155530E+02 -6.782228687288E+00 -4.609327057084E+02 -1.080857551191E+01 -4.300356379451E+00 5.569965158387E-02 -4.544238150309E-01 -1.255999958942E-02 4.277091621140E-01 -1.125719902666E+00 -1.720610279241E-01 -4.066656501523E-01 -4.411353468488E-01 -3.773034438767E-01 2.819858020966E+03
 4.422988716131E+02 -7.426644620672E+02 2.375138731697E+00 -8.258688683146E+00 -1.432496371663E+03 3.293602724534E+00 2.854712676603E-01 -6.526815339845E-02 -1.319933189601E-02 7.888902970456E-01 6.360828634939E-01 -5.556740714694E-01 -8.787475840402E-01 3.949331209605E-01 8.900058681845E-02 1.385005505187E+00 2.782305681920E+03
 -7.177960315036E+00 2.078350800815E+00 -8.296597332962E+01 -6.978245716217E+00 1.828250193756E+00 -8.323471725770E+01 3.391361430372E-02 -1.120950169220E-01 5.708660425064E+00 1.023906392594E+00 -1.426810255671E+00 -5.039396856713E+00 2.668694611760E-01 -1.513135670756E+00 -4.327677980558E+00 2.024135974308E+01 -1.857859577487E+00 1.939588317352E+02
 -1.192339731693E+03 -4.109156354211E+02 -9.039071129640E+00 4.847200859531E+00 -1.068036458555E+00 8.169367472105E-01 -1.255144981786E+03 4.508675922357E+02 1.155891388607E+00 -4.770719145865E+02 -1.795792379838E+01 -3.206356980393E+00 -4.014991164834E+00 2.286367753816E+00 -1.232245362587E+00 -1.965607086899E+01 -3.322316334546E+01 -7.734007494535E-01 2.810130731584E+03
 -4.118537759376E+02 -7.025131957834E+02 -7.734522991123E+00 -8.489272111974E+00 7.686024854743E-01 1.511716022085E-01 4.529157199064E+02 -7.499219980550E+02 -6.154227657956E+00 -2.013947821997E+01 -1.509689354428E+03 -1.598940425338E+01 3.994247227457E+00 -3.446500394950E-01 1.185230141843E+00 3.547178640897E+01 5.842789661094E+01 5.663647480902E-01 -2.704095931305E+01 2.846366175689E+03
 -9.515663923709E+00 -6.711249304423E+00 -8.247100412698E+01 2.137524261740E+00 4.078730754806E-01 -6.774710797726E+00 2.094688989800E+00 -6.218715539132E+00 -8.629630362256E+01 -6.020175009685E+00 -1.762378390777E+01 -8.828649275733E+01 -2.694582203739E-01 8.972919678126E-01 -4.907433591203E+00 -5.819185326003E-01 -4.729747019334E-01 6.899590268699E+00 1.141110823127E+01 3.098144025006E+01 1.977704047925E+02
 1.112381365620E+00 1.972394533440E+00 2.970999222410E-01 -1.196110817440E+03 -4.180236277205E+02 -1.921530762175E+01 4.817587644981E+00 -3.699485751254E+00 3.272520298672E-02 -1.213352301024E+03 4.362221925256E+02 -2.044462592462E+01 -1.259429217495E+01 9.329518209907E+00 -2.646481110835E+00 3.623909951285E+01 -1.642423072621E+00 4.023229364144E-01 3.420042080054E+01 6.098918435558E+00 1.766586912898E-01 2.767945220179E+03
 1.296962527938E+00 3.751232415830E+00 1.380496321153E+00 -3.855484220637E+02 -7.112052520704E+02 -3.113788211913E+00 8.249751576780E+00 -4.144751615075E+00 5.471444300897E-01 4.530491942813E+02 -7.378187942446E+02 4.883529923475E+00 -1.997819774211E+01 1.706845289535E+01 -7.753704908063E+00 -6.808121431296E+01 -1.491894341203E+00 -5.868403833584E-01 6.114836276295E+01 7.042080577882E+00 -1.334620336557E-01 -3.471727857169E+01 2.765983066358E+03
 8.106757739492E-01 -5.592955940741E-01 -9.156461878197E+00 -2.007919178186E+01 -5.384301284459E+00 -8.510902777599E+01 -5.373071977350E-01 3.699177659138E-01 5.072505037696E+00 -1.947630262882E+01 5.117765597072E+00 -8.370831605148E+01 4.474748595294E-01 4.543692867130E-01 4.149392430557E+00 3.107400127731E-02 -4.015522950696E-02 9.333676007372E+00 1.884893610418E+00 5.027410465409E-02 8.740889171096E+00 4.666548613156E+01 -9.211072327915E+00 1.948605711778E+02
 -8.565357141960E-01 -5.819443181287E-02 -1.416609872644E-01 -2.319053720796E+00 -3.468819241990E-01 -1.778527079817E-01 -1.199573297376E+03 -4.030161817507E+02 -5.133242002750E+00 -4.648071431582E+00 3.203710886826E+00 1.425540487954E+00 -5.110640585921E+02 1.173715215185E+01 -9.265639436160E-01 3.993064207517E-01 2.307779032012E-01 2.966617908560E-01 -1.803531498289E+01 -3.561309391980E+01 -1.209637965037E+00 3.001329201009E+00 4.150178519444E+00 -8.683430364099E-02 2.772013695001E+03
 -1.330599382296E+00 1.347439528032E+00 8.765837599025E-01 1.277830849464E+01 1.050716096300E+00 1.391216197252E+00 -4.076631833660E+02 -7.044149577115E+02 -8.656897459435E+00 -2.518868667097E+00 8.219986074852E+00 -3.241329250551E-01 4.944311396862E+00 -1.622233653037E+03 -3.913370108384E+01 2.737439658205E-02 -6.033670870992E-01 7.824269222313E-01 3.324281411720E+01 6.022580043051E+01 -1.493399172813E-01 -7.229376862433E+00 -1.448967460466E+01 -1.800702921765E-01 -3.679182326410E+01 2.947259483259E+03
 8.758997153217E-01 -1.700441183603E-01 5.796165662630E+00 -4.402405670741E+00 1.159175612268E+00 6.062869449568E+00 -6.969351587719E+00 -8.449539843333E+00 -8.372149478649E+01 2.578886085723E+00 -3.532084058341E+00 -1.240019385657E+01 6.490902213107E-01 -3.363675440288E+01 -8.789381723815E+01 1.087980066072E-01 9.435729641054E-02 3.404175995959E-01 -3.683367199570E-01 3.458418536363E-01 9.494441438943E+00 1.899936021020E+00 2.716198325687E+00 3.621198222466E-01 -1.997245029322E+00 5.498500111832E+01 1.891373380958E+02
 -5.922834631931E-01 -8.378218298885E-01 3.824369841393E-01 -6.653784869388E+00 -4.568428511733E-01 4.703155572777E+00 -3.142904074169E+00 5.322275685046E-01 -3.820308391308E-01 -1.209044254470E+03 -4.113063139155E+02 -1.962674692543E+01 -1.326302254350E+03 4.818962637570E+02 6.698601088253E+00 -5.048416539987E-01 8.532081872851E-01 5.415376172874E-01 4.254110347565E+01 -1.472359734105E-01 1.439735274030E+00 -8.951491973470E+00 -2.000322270810E+01 -3.299205995527E+00 4.993532516266E+01 5.098672242658E+00 -1.958492158008E+00 2.827995476033E+03
 -4.542332888780E+00 3.106567475743E+00 1.130880929589E+00 1.394183670931E+01 4.772876480368E+00 -2.883538485819E+00 8.084447198618E+00 6.943026065011E+00 1.613274456966E+00 -4.209413570198E+02 -6.694485618183E+02 -1.827120023981E+01 4.741610168630E+02 -7.974209997775E+02 -2.646651311869E+01 1.654617685670E+00 -2.108599273253E+00 2.243844429214E+00 -6.631448891460E+01 -5.861682905746E+00 -3.555035522498E+00 3.650568541050E+01 4.049370499713E+01 2.506088139079E+00 7.883512814923E+01 -3.310157197791E+01 2.641450388069E+00 -5.339016681740E+01 2.754324466336E+03
 -2.832131875181E-01 1.420661370656E+00 5.295455319396E+00 3.104748857421E+00 1.612755605859E+00 1.562048513886E+01 2.264076839161E+00 3.106543747382E+00 -1.160353684495E+01 -2.353031216718E+01 -1.354275609272E+01 -1.032603505181E+02 -5.939504401400E-01 -1.110913477329E+01 -9.199258407271E+01 1.621798541227E-01 4.992206737959E-01 -2.283993752758E+00 -1.113325676416E+00 -2.945419695190E+00 1.237100957181E+01 -3.609004620912E-01 -8.020520869083E+00 6.890709678184E+00 2.396200583672E+00 -3.988967881047E+00 1.370436023529E+01 9.872033899295E+00 7.675140585208E+01 3.162207250741E+02
 8.398954392530E-02 -2.173074232165E-01 1.117256536302E-02 -1.674258678418E+00 -1.851677928645E-01 -7.240166359079E-02 -5.011599174552E-01 -6.328248298983E-02 -5.042990784092E-02 -4.542395441697E-02 -5.915875749382E-01 2.595296428414E-02 1.177652555572E+00 -1.661708883572E+00 2.477321771186E-01 1.903486162918E-02 1.894619255417E-01 -5.975183788341E-02 2.584225432098E-01 -4.469557897697E-02 1.457071225781E-01 1.159066379763E+00 2.014097706795E+00 -5.035319857968E-02 -1.104936261629E-01 1.442900157743E+00 -8.038613009923E-02 -4.832810220595E-01 3.428430875265E+00 9.783944458091E-01 2.810807840225E+03
 3.397034505703E-01 5.149966318810E-02 -1.925264922861E-01 -2.542484659317E-01 -4.451471918543E-01 -3.300304454064E-01 -8.169701676157E-03 -1.713255842319E-01 -7.496864784364E-02 8.112046292038E-01 -1.357989107759E+00 1.002120265242E-01 1.343176642826E-01 -2.119794220837E-01 5.839704936846E-01 -7.640570160684E-02 8.654398552542E-02 -6.393673672383E-02 -4.463043363501E-01 1.515200466913E-01 1.872529484552E-01 -1.037911840545E-01 -3.970081808114E-02 -9.531047780255E-03 1.764595883735E-01 6.317808721282E-01 -3.295885716509E-01 2.248453015991E-01 2.778279894280E+00 -2.698325673319E-01 1.686876141133E+00 2.799567856909E+03
 3.917607899567E-02 -4.161345873862E-02 1.807285098268E-01 -9.447216631939E-01 1.256541655472E-01 9.109696911191E-01 -1.369216499512E-01 7.798413089878E-02 1.891234286248E-02 -2.414224993256E-02 -1.635630305854E-01 -2.644343670060E-01 3.153946089516E-01 -4.917242988281E-01 -1.250262190390E+00 9.805885361665E-03 1.080287723827E-01 4.569836618413E+00 1.073897690570E-01 -1.031849221126E-01 -1.059875199619E-01 5.361665483584E-01 7.306996984511E-01 1.446825040974E-02 7.527835321128E-02 4.007373929617E-01 6.827483691622E-01 -1.762106270053E-02 4.546656628597E-01 4.125770608389E-01 1.683899572434E+01 -1.753881584301E+01 1.939718696611E+02
 -2.918070130916E-02 -3.879317564401E-01 -2.130600853250E-01 -4.113189709906E+00 7.413151004883E-02 5.027272646547E-02 -9.717826009581E-01 3.425338666410E-01 -2.117411446072E-01 -9.905547528150E-01 -2.760223248601E-01 1.942813788220E-02 2.417615266382E+00 -2.663277102441E+00 1.513833770413E+00 1.017828078284E-01 2.529657255039E-01 -2.595369896630E-01 8.515685374550E-01 -8.684399090335E-01 4.158825295629E-01 3.326714244527E+00 4.798155615695E+00 -6.828808786507E-02 -2.445214486270E-01 2.176518283480E+00 -6.530175218553E-01 -1.226712335965E+00 3.707549652164E+00 1.255964457049E+00 4.103750038974E+01 7.143018432006E+01 -4.700008610089E-01 2.780227803514E+03
 1.968359288993E-01 -4.005410626672E-01 -3.739998349791E-01 -4.872848055872E+00 -1.600339025211E-01 -1.228636038827E+00 -1.112798312564E+00 4.223299082261E-01 -1.769046518448E-01 -6.945898788703E-01 -1.087029279131E+00 3.672453632474E-01 2.513198355245E+00 -2.268065577738E+00 1.737251826204E+00 1.479910428852E-01 2.807289020511E-01 -2.650126275513E-01 5.065561459284E-01 -1.056255098850E+00 3.940173762279E-01 3.985934485053E+00 5.263200083671E+00 4.928156169164E-02 -2.929440056786E-01 2.657232406874E+00 -8.460206649227E-01 -2.018880154309E+00 5.293949179264E+00 8.767045608978E-01 -1.332611184507E+00 -2.037122696407E+00 -9.425536772332E-02 2.785745314381E+02 2.860453796346E+03
 -1.484649651668E-01 7.533263251177E-02 4.832867288645E-01 -4.793921946222E-01 1.329245263054E-01 2.329776427178E+00 8.424601826424E-02 3.456307875486E-02 8.691910970001E-02 -3.730105323297E-01 5.120033285993E-01 6.001728892992E-01 -1.728239430062E-01 -3.837148449046E-01 -2.705279071268E+00 1.093408172790E-02 5.974843789722E-02 2.707433456087E-01 2.518790210476E-01 2.537420881385E-01 -3.641451875668E-01 1.722423010796E-01 7.617086264516E-01 -2.739948772895E-01 -1.384669861717E-02 -4.498717979315E-02 8.683385718919E-01 1.713794827953E+00 -1.249111551979E+00 1.116569157010E+00 2.318701453507E-01 4.640439719053E-01 1.099339813568E+01 1.311916977408E+01 -1.864273204767E+01 1.500698893137E+02
 -1.975356385621E+01 -3.390494960847E+01 -1.036782534532E-01 4.077071770409E+01 -2.907294423031E-01 4.884360858693E-01 5.896973464199E-01 -3.631711359077E-01 -2.287274871170E-04 1.626077210419E+00 -1.254344594046E+00 2.897687165589E-01 -1.320458746009E+00 1.270264241444E+00 8.890193839440E-02 -1.247020473657E+03 -4.339002588939E+02 -8.948826359478E+00 -9.196669962493E-01 5.620457583883E-01 3.463179686410E-01 -1.719956882820E+00 -2.667520307516E+00 -2.462524194902E-02 3.649740530433E-01 -4.898476321205E-01 -1.998191285820E-01 1.969749660211E+00 2.184660838688E-01 -1.097497579744E+00 -1.917490560683E+01 3.411109267909E+01 -3.224865670609E-01 2.143437429836E-01 1.317384842546E-01 9.532222470211E-02 2.776832631093E+03
 3.634681493268E+01 6.063227396392E+01 7.173763033789E-02 -6.841316867697E+01 -1.310429343551E-01 -7.005837423793E-01 -1.408223477833E-01 -1.454770419970E-01 -1.270422376739E-02 4.298961435987E-01 -1.294088969498E+00 2.470367737345E-01 4.561460646496E-01 -3.855351506631E-01 2.425363047596E-01 -4.388012246568E+02 -7.230593887119E+02 -2.590075217775E+00 -3.291218129523E-01 1.418039475073E-01 8.866718301333E-02 1.223969636208E-01 6.506782391463E-01 1.642951317123E-01 1.160923687954E-01 7.325464402710E-01 -2.711272299159E-01 -2.650823718706E-01 3.627191712606E+00 -5.107387198144E-02 -3.249707686842E+01 5.731776456376E+01 -5.727871312138E-01 -1.939149188112E-01 -1.689507567266E-01 -8.493211951858E-02 1.984745704832E+01 2.805218263974E+03
 1.646502384074E-02 -1.372297421729E-01 9.953103443120E+00 9.378192379046E-02 2.115459811668E-01 8.315102879109E+00 -3.526261706217E-02 6.694757509783E-02 2.270048767568E-01 -2.250387667543E-02 -1.148058169114E-01 5.489047279534E-01 2.145839593583E-01 -3.120044555041E-01 -8.815372775045E-01 -9.351293900505E+00 -3.009946525090E+00 -8.266160742204E+01 -5.651840173166E-02 -5.038491123511E-02 4.147987257199E+00 1.860796016405E-01 3.118709547366E-01 4.703015891068E+00 4.578773111740E-02 1.270901693270E-01 2.107956751673E-01 -2.808702773040E-01 4.699447235865E-01 -5.447144094150E-01 6.693031335065E-02 -2.428468397993E-01 8.815597038804E+00 4.565808374461E-02 9.660469752907E-03 -2.227251836313E-04 2.149921956114E+01 -7.867176647472E+00 1.915223762207E+02
 2.824243927189E-02 -1.356746171220E+00 -6.845937274642E-01 -3.401214458916E+01 -3.168619950027E+01 -1.254844839641E+00 -3.877835461223E+00 1.321372358427E+00 -4.954226045924E-01 -3.455350559332E+00 -1.397585367043E+00 5.832092836695E-01 9.020085151444E+00 -9.660189215384E+00 4.252573329527E+00 2.328826852911E-01 1.998055394141E-01 -7.105363327741E-01 2.882653340576E+00 -3.103387724973E+00 9.788868798552E-01 1.295681499489E+01 1.866147468099E+01 -2.745160769734E-01 -1.228093003861E+00 8.703029754400E+00 -1.855557701206E+00 -5.357751730291E+00 1.507038836054E+01 4.977026110703E+00 3.879577249640E+01 -6.931574926621E+01 4.810164190446E-01 -2.522042528157E+01 3.785061594463E+01 -7.809585630926E-01 4.011082961799E+01 6.646852085160E+01 -4.886787446488E-01 2.762203374852E+03
 1.908083449010E-01 -6.928931897359E-01 -3.660586045134E-01 2.774364265346E+01 5.600502662626E+01 -7.728482673387E-01 -1.625410006042E+00 1.223094637847E-01 -2.869014752872E-01 -1.496024462994E-01 -2.250089817174E+00 6.185166243011E-01 4.045978243561E+00 -4.798765553002E+00 2.101062969780E+00 -1.362783234414E-01 8.409679937000E-01 -4.226748539629E-02 6.638182223488E-01 -7.580308317316E-01 7.075198238039E-01 4.346133327448E+00 7.033750167150E+00 1.468751622404E-01 -2.851377672687E-01 4.466204565274E+00 -1.093632248026E+00 -1.333620858525E+00 1.091771594100E+01 2.202367722444E+00 -6.185502781045E-01 -3.609431725720E-02 -5.246662757615E-02 -4.281553239910E+01 7.273878443678E+01 -8.470793362661E-01 3.439933560906E-01 -9.025597882255E-01 -2.168326219210E-01 -4.254056601388E+01 2.756954655159E+03
 -4.453112410821E-02 4.007906115191E-02 -4.063384048055E-01 8.827036273878E-01 -1.835614639487E+00 5.258458120226E+00 3.331507669157E-01 -1.296910661201E-01 1.691655225806E-01 -8.412170780066E-01 8.300878420146E-01 7.088774137541E-01 6.137430233513E-02 2.042222508571E-01 2.717528286496E+00 -3.118501775467E-01 -4.725094402854E-01 -8.632393616100E+00 1.957545390528E-01 -5.576880506692E-02 -1.592160987611E-02 -4.336275663370E-01 -6.098932243790E-01 4.441608128213E+00 -1.144770788243E-01 -9.540692692432E-01 -1.432091718908E+00 5.026171690253E-01 -1.402224532160E+00 -1.303267262715E+00 1.329356743804E-02 -3.326012085971E-01 9.324347197861E+00 4.232012014733E-01 -2.899479586297E-02 1.186120133674E+01 1.524667588387E-01 9.813600335206E-01 8.904463380457E+00 2.041452518729E+01 -2.013401595646E+01 1.859061671599E+02
 5.059719337713E-02 3.515911682649E-01 8.921957531910E-02 2.713219308771E+00 -1.416088837065E-02 -5.716523396502E-02 8.089473951256E-01 -1.084614615098E-01 1.160265305107E-01 6.324538695621E-01 3.170573215689E-01 4.370248302726E-02 -2.037500782385E+00 2.517601341026E+00 -7.965195575451E-01 -4.444099581774E-03 -1.960168959540E-01 8.315825009568E-02 -6.674538233654E-01 4.039361316944E-01 -2.538256068325E-01 -2.256403579295E+00 -3.674547471275E+00 3.972727072136E-02 2.485234129765E-01 -1.946259221965E+00 2.539333055930E-01 8.419799437421E-01 -3.829615994464E+00 -1.396283126794E+00 -1.233732083680E+03 4.346284447869E+02 -1.010569374098E+01 -5.050393374155E+02 -1.767849868138E+01 -2.250991658987E+00 -2.705155370267E-01 1.684839713980E-01 -1.209631378024E-01 1.490551346343E+00 4.242156088599E-01 3.516852589695E-02 2.841623477046E+03
 -2.637481651619E-01 2.623777061897E-01 3.069740759680E-01 3.462728290165E+00 4.433599335592E-01 8.929109454300E-01 7.613396209231E-01 -1.792546221380E-01 1.409810999430E-01 1.886042993707E-01 1.278356930271E+00 -2.478405648803E-01 -1.800069833470E+00 1.757623413136E+00 -1.266680809672E+00 -8.054565723715E-02 -2.619049970642E-01 2.497548267833E-01 -1.857093935878E-01 5.698567628382E-01 -3.161164095589E-01 -2.641368503281E+00 -3.607887037866E+00 8.339680681030E-03 1.318203159988E-01 -2.113203646423E+00 6.694438832908E-01 1.165589203837E+00 -5.057461801793E+00 -8.503335424651E-01 4.368184226941E+02 -7.307252526842E+02 7.444188713086E+00 -2.750481163015E+01 -1.540802037827E+03 1.120744767194E+01 -1.082607302402E-01 5.031012264018E-02 1.005818065236E-01 1.371929253084E+00 1.129301228239E+00 -1.545984851227E-01 2.880263378124E+01 2.892343672030E+03
 1.912119199632E-01 -3.639689719614E-02 -2.465918838139E-01 3.612499902412E-01 -4.141037624776E-02 -8.376080790522E-01 -7.292381209991E-02 -8.781691597400E-02 -1.186512998985E-01 6.729291033191E-01 -7.240023058979E-01 -7.540517963840E-01 1.921985440330E-02 1.501487629296E-01 1.337571087834E+00 -3.348212846455E-02 -3.205433454156E-02 -2.826298160576E-01 -3.215666038850E-01 -2.216114350069E-02 2.913507096820E-01 -3.240187842532E-01 -7.077049257886E-01 1.827422027573E-01 8.676001823776E-02 2.677121330726E-01 -2.627070533593E-01 -1.254493997329E+00 1.528541330978E+00 -4.566544860880E-01 -1.012974416804E+01 7.133019766302E+00 -8.513065982422E+01 -2.111230212918E+00 1.141768822254E+01 -7.719592978556E+01 -1.095270034793E-01 5.118527854158E-02 4.475766035724E+00 1.912026645526E-01 -6.530778367823E-02 -1.026019378023E+01 1.481419434615E+01 -2.078520868943E+01 1.844303826962E+02
 -3.404145271743E-01 -1.580724135979E-01 -1.121869365018E-01 -1.736970696529E+00 -2.925355825970E-01 3.357399111413E-01 -1.963705979436E-01 4.121890037266E-01 8.396906892340E-02 -1.513357257150E+00 1.296047497200E+00 1.257703070719E-01 3.614868614663E-01 2.570601018365E-01 -1.311502617446E-01 -1.923267635358E+01 3.513651840851E+01 -3.850618359911E-01 7.538970247038E-01 -5.116004608700E-01 -2.236338045328E-01 1.346190868071E+00 1.644805179124E+00 -1.482481921292E-01 -1.521477418542E-01 -5.504398813307E-01 -4.647427615680E-03 1.862153317815E-01 -2.997835018458E+00 3.548667553175E-02 -1.223668824887E+03 -4.240475331304E+02 -5.160904038423E+00 -2.940604913604E-01 -4.368204199411E-01 1.006192129057E-01 -1.173652528061E+03 4.232477432969E+02 -1.005729007432E+01 -4.683280917482E+02 -1.143113338290E+01 -2.153057612352E+00 -1.926825372953E+01 -3.374455446263E+01 3.480782372640E-02 2.750336641751E+03
 -4.298755543233E-01 4.115047096573E-01 4.531258229762E-01 4.451454359376E+00 9.278331265614E-01 1.008289827741E+00 1.416367794437E+00 -1.293630219079E-01 1.493133478761E-01 -1.758873277594E-01 2.618442987158E+00 -6.413528483936E-01 -3.397156708309E+00 3.728796546338E+00 -1.719507240450E+00 -3.264265398279E+01 5.791208042534E+01 -5.359343865991E-01 -2.387047187055E-01 6.606670518029E-01 -5.018551676288E-01 -3.956375721694E+00 -6.290496956016E+00 -1.345926532751E-01 2.072018996518E-01 -4.009147498486E+00 1.005539081131E+00 1.347204716762E+00 -1.054103499090E+01 -1.763994761164E+00 -4.265964806082E+02 -7.136275966038E+02 1.537191360307E+00 7.670676340582E-01 1.136759765930E+00 7.969041766592E-02 4.242597386318E+02 -7.163385341630E+02 6.596033043337E+00 7.995546471671E-01 -1.495424806389E+03 1.069555008170E+01 3.388026777891E+01 5.896576316963E+01 -5.527300850257E-02 6.149984116119E+00 2.807980858321E+03
 6.114387261417E-02 7.869775051677E-02 4.847120621017E+00 6.542853065935E-01 -2.866798605276E-02 -8.350375339698E+00 2.437692408518E-01 -2.006101858421E-01 2.060474666549E-01 2.672786193606E-01 -1.672441376073E-02 1.409847369957E+00 -6.535562760818E-01 5.604179065209E-03 -1.701274955910E+00 -2.079781119437E-01 2.597696029093E-01 9.379952958628E+00 -1.354716864180E-01 5.548201684103E-01 -4.857744352188E-01 -6.935210246812E-01 -3.418961807501E-01 -1.882343971425E-01 -1.712799288673E-02 -8.148803637872E-02 9.659580384040E-02 1.352407125356E+00 -7.371005781381E-01 3.245306804730E-01 -4.879965078426E+00 1.471576750623E+00 -8.262670144709E+01 -8.466710519137E-03 -1.119925512721E-01 -1.004599789709E+01 -1.043438537926E+01 5.898172720944E+00 -8.059503409319E+01 -2.515534236758E+00 1.115963688927E+01 -8.208010094175E+01 -4.251803222151E-01 -5.339138286314E-01 9.487627556794E+00 1.747134253263E+01 -1.861399990875E+01 1.910037064286E+02
 1.520351415783E-01 1.020541226653E+00 5.895909288502E-01 1.155190877501E+01 -3.819795594787E-01 1.563195575822E+00 2.728130797087E+00 -1.514229655862E+00 3.313824562178E-01 3.553845157525E+00 -1.455962118858E-01 -5.495708136213E-01 -5.884826662097E+00 4.710570424413E+00 -3.111679044169E+00 -4.374712356191E-01 -5.562235978081E-01 4.645150050817E-01 -2.192200978174E+00 2.990020200268E+00 -7.171902729419E-01 -1.041159153973E+01 -1.360029704204E+01 -2.782728524419E-02 1.128531303169E+00 -5.081871223394E+00 1.263417129666E+00 4.538984327470E+00 -6.280526728262E+00 -2.336712921312E+00 4.135903934099E-01 -1.047502216218E-01 3.615825247290E-01 -1.503438602965E+03 -5.260322549376E+02 -4.169394211653E+00 -5.900733054663E-01 2.060173459949E-01 4.542436503201E-02 -1.272135478612E+03 4.375838384642E+02 -1.230421487564E+01 4.775467632744E+01 -2.270357938830E+00 -6.212767620667E-02 3.926899849834E+01 -2.308128553947E+00 2.027562822575E-01 3.069915435997E+03
 1.584802527061E-01 -8.313029498508E-02 -1.015552953746E-01 -9.580617538674E-01 -1.357108188320E-01 -5.628079748984E-01 -1.922271946165E-01 5.687720076587E-02 -4.710695194174E-03 1.376422493700E-01 -4.959905979116E-01 3.210225598146E-01 1.435415499150E-01 4.492100845616E-02 3.298081410435E-01 7.019240726933E-02 1.107553216262E-01 -4.120088884646E-02 -8.438062949332E-02 -1.222160994071E-01 1.761868105067E-02 7.400397227072E-01 7.894937962853E-01 -3.351727217861E-02 -4.922390190885E-02 5.128045212439E-01 -2.267662343088E-01 -3.446430123993E-01 7.993538473524E-01 -2.951589983747E-01 -3.619162399543E-01 7.481170338548E-02 -1.388771519654E-01 -5.383465084776E+02 -8.689222515089E+02 2.496948826964E+00 6.451096296138E-02 1.192009852239E-02 -6.277504321500E-02 4.202014221307E+02 -7.213557210054E+02 7.540015507200E+00 -8.566428419936E+01 2.408901287178E+00 -4.961426427439E-01 7.169679463776E+01 -4.654205780381E-01 6.558138584944E-01 8.900783080844E+01 2.536736328384E+03
 -5.910566119950E-02 -5.289771625010E-02 -1.985416431029E-01 -5.544796335078E-01 2.348129018201E-01 4.805346821633E+00 -1.821616643874E-01 2.076411282719E-01 -2.555542037608E-01 -4.936909461204E-01 4.177176952220E-01 -1.168599568559E+00 3.675256983086E-01 2.011394952631E-01 1.487142166663E+00 3.077679475443E-02 -1.995084299968E-02 -4.889244443177E-01 2.009683675766E-01 -3.790153312786E-01 5.148071119897E-01 8.263554133571E-01 6.225412064151E-01 8.900193046406E-03 -1.300073365057E-01 -1.781053706954E-02 -1.522331465456E-01 -7.157491440670E-01 -3.559957274037E-01 2.532055908546E-01 7.782053283441E-02 8.119405603174E-02 -1.040657314253E+01 -4.894626176658E+00 2.379475098700E+00 -7.055988688885E+01 1.321413610851E-02 1.101955318684E-01 4.468459114186E+00 -1.135580255304E+01 7.358868118406E+00 -7.579900867812E+01 1.017375868957E+00 -5.958692736982E-02 1.108403395303E+01 -6.016250733883E-01 2.009768020283E-02 9.461767720698E+00 1.829479664986E+01 -1.512442457724E+01 1.508407467371E+02
 1.501208385179E+00 2.668834201186E+00 1.544757013775E+00 -1.199248177695E+03 4.452251912544E+02 -1.625108733551E+01 7.447501035789E+00 -4.644008506195E+00 6.331120698262E-01 1.203828114135E+01 -3.862335461815E+00 -1.580091231165E+00 -1.684838706841E+01 1.347896043739E+01 -1.016083623553E+01 3.807800430766E+01 -2.310516163987E+00 1.777750773256E+00 -7.822022609360E+00 8.909809571175E+00 -1.546499605412E+00 -4.703610673076E+01 -2.315784378275E+00 -6.157656206110E-01 3.020604088180E+00 -1.148479471009E+01 3.965727461109E+00 1.026807066584E+01 -9.764800825014E+00 -4.027746649388E+00 1.608056096823E+00 -4.060536914216E-01 8.315606937396E-01 4.291944125935E+00 4.573868694770E+00 8.573080870290E-01 -2.915852005899E+00 2.955085639129E-02 1.024475172536E-01 -1.124558800296E+03 -3.805673294827E+02 -8.521326333632E+00 -3.058666025915E+00 -2.899096352750E+00 -7.245279166665E-01 3.888672296866E+01 -4.472355561270E+00 -1.936907696626E-01 -3.018408733414E+01 -3.198595342806E+01 6.157945812878E-01 2.694987834660E+03
 -5.285666005782E-01 6.532001580618E-01 -8.706306719073E-03 4.540994623214E+02 -7.304031538158E+02 1.317543662495E+01 4.681399732305E-01 1.412837310948E+00 9.782123974052E-02 -2.835359788057E+00 4.612845576927E+00 -1.368835853691E+00 -1.944764316117E+00 4.338046378129E+00 1.720854244459E+00 6.684333402230E+01 -2.193636879533E+00 1.650052923516E+00 1.389740439367E+00 -1.757619149723E+00 -1.730026628709E-01 -3.238543456774E+01 5.921807345740E+01 -1.915367153757E+00 -7.601407804072E-04 -4.657015946335E+00 -2.770447287006E-02 5.390697919121E-01 -1.848637306756E+01 -4.404475710613E+00 7.979730789263E-01 7.663922880571E-01 -2.210594034242E-02 1.181144104871E-01 6.564337095309E-01 -6.144006797635E-02 -5.090605436884E-01 1.290806345667E+00 -6.432323338116E-03 -3.830318066214E+02 -6.736329500283E+02 3.287033062505E+00 -4.121647461555E-01 -1.086666508413E+00 1.766931952805E-01 -6.582437391600E+01 -1.358954965268E+00 -4.364238991163E-01 3.165026372222E+01 5.819913431744E+01 -3.048912228456E-01 -1.364300169531E+01 2.811110541258E+03
 -1.361067722422E-01 2.965385778797E-01 2.576673943553E+00 -1.844083448953E+01 1.195954322382E+01 -8.931517495207E+01 3.712818129242E-01 -5.966943016936E-03 -7.933511973765E-01 1.262633046706E-01 3.310125526934E-01 2.325589544156E+00 -2.734503223448E-01 2.943618126422E+00 1.314687582896E+01 7.162222317240E-01 -2.456619637361E-01 6.830541658552E+00 -7.707830709019E-01 -8.981631016829E-01 2.218290779144E+00 -2.057230681603E+00 -2.801490766511E+00 9.942615302809E+00 -4.523183271805E-01 -1.861232914021E+00 -4.789525921858E+00 -3.674172930669E+00 1.859411407938E-01 -3.431007352178E+00 2.717244019947E-01 6.071645939386E-01 3.640526596094E+00 2.698951561996E-01 1.359726541757E+00 3.465055507104E+00 1.526961316160E-02 5.177118999385E-02 -9.163485802010E+00 -4.806229316429E+00 3.608925500590E+00 -8.009437514900E+01 -1.988636473393E-01 -1.154190643149E+00 1.051867783767E+00 2.025285859376E-01 -8.839592315117E-01 7.026576484216E+00 -1.895694855109E+00 -1.480138502008E-01 1.039319072643E+01 2.867072585015E+01 -4.105555873244E+01 1.949763588315E+02