#BIOSYM hessian 1
@Type: Hessian Update
@Units
 distance: 	A
 energy: 	Kcal/Mol
#header
@natom 67

#label
C1      C2      C3      C4      C5      C6      C7      C8      C9      C10     C11     C12     C13     C14     C15     C16     C17     C18     C19     C20     C21     C22     C23     H24     C25     C26     C27     C28     C29     C30     C31     C32     C33     C34     C35     C36     C37     C38     C39     C40     C41     C42     C43     C44     C45     C46     C47     C48     C49     H50     H51     H52     H53     H54     H55     H56     H57     H58     H59     H60     H61     O62     H63     H64     H65     H66     H67

#element
C  C  C  C  C  C  C  C  C  C  C  C  C  C  C  C  C  C  C  C  C  C  C  H  C  C  C  C  C  C  C  C  C  C  C  C  C  C  C  C  C  C  C  C  C  C  C  C  C  H  H  H  H  H  H  H  H  H  H  H  H  O  H  H  H  H  H 

#matrix
201
 2.765845950233E+03
 -2.327368417647E+01 2.802941869407E+03
 -7.409671359380E-12 -2.481792599664E-11 3.428634318364E-01
 3.951874532707E+01 6.578762191500E+01 0.000000000000E+00 2.729971197766E+03
 -4.174801326186E-01 -7.076915415381E-01 0.000000000000E+00 -2.257417815259E+01 2.723452851543E+03
 0.000000000000E+00 0.000000000000E+00 3.121138465860E-01 -7.460627777131E-12 -2.413602483246E-11 1.995251053958E+00
 -1.941737854266E+01 3.468341601092E+01 0.000000000000E+00 1.260593960721E-01 2.201009500666E-03 0.000000000000E+00 2.813928551034E+03
 -3.333670995895E+01 5.977255949842E+01 0.000000000000E+00 -1.160625384174E+00 -1.725302364572E-02 0.000000000000E+00 -3.009710850033E+01 2.825985790516E+03
 0.000000000000E+00 0.000000000000E+00 9.616428784300E-01 0.000000000000E+00 0.000000000000E+00 1.582049988770E-01 -7.402816621191E-12 -2.513119290490E-11 2.997758993642E+00
 3.875580024840E+01 -6.939462283319E+01 0.000000000000E+00 -1.822484930434E+01 3.491337972215E+01 0.000000000000E+00 4.234633189758E+01 7.084939200210E+01 0.000000000000E+00 2.782757316189E+03
 -6.430630431838E-01 1.279421546423E+00 0.000000000000E+00 -3.262723220395E+01 5.842199485040E+01 0.000000000000E+00 -6.929424391152E-01 1.224976296461E-01 0.000000000000E+00 -2.383631650923E+01 2.836325694379E+03
 0.000000000000E+00 0.000000000000E+00 9.288452465662E-01 0.000000000000E+00 0.000000000000E+00 1.820840438566E+00 0.000000000000E+00 0.000000000000E+00 2.196388453097E+00 -7.621172562325E-12 -2.498036672125E-11 3.072212492933E+00
 1.281475882087E-01 -3.592796860263E-01 0.000000000000E+00 7.937119366578E-01 9.441859916149E-03 0.000000000000E+00 4.197248771388E+01 -7.521732741557E+01 0.000000000000E+00 -2.064332495736E+01 3.777682120373E+01 0.000000000000E+00 2.647067663106E+03
 -2.535198147479E-01 7.071248923423E-01 0.000000000000E+00 -1.551538008413E+00 -2.146863822764E-02 0.000000000000E+00 -7.613621619123E-02 1.900670456282E+00 0.000000000000E+00 -3.653782474499E+01 6.443856060806E+01 0.000000000000E+00 -2.256872476753E+02 2.918249480959E+03
 0.000000000000E+00 0.000000000000E+00 1.538529557437E+00 0.000000000000E+00 0.000000000000E+00 1.657590450467E+00 0.000000000000E+00 0.000000000000E+00 4.207440069371E+00 0.000000000000E+00 0.000000000000E+00 4.314511088263E+00 -5.261256472306E-12 -2.529883202064E-11 6.942449551127E+00
 -1.210450503541E+03 4.420399034440E+02 0.000000000000E+00 -4.570428652518E+02 -9.887819136122E+00 1.299630758172E-12 5.686768279088E-02 -5.152580345263E-01 0.000000000000E+00 3.549664444016E-01 -3.475229695759E-01 0.000000000000E+00 3.531276781504E-01 -6.901407213359E-01 0.000000000000E+00 2.792383252370E+03
 4.373729836015E+02 -7.326745950931E+02 5.309311190884E-12 -9.651612107056E+00 -1.430502041017E+03 1.270460568907E-11 2.462329121983E-03 -2.198893483478E-02 0.000000000000E+00 1.394961334279E-02 -1.299372038227E-02 0.000000000000E+00 1.568469652568E-02 -3.007958905096E-02 0.000000000000E+00 1.077321531857E+00 2.757386737727E+03
 0.000000000000E+00 5.333044678673E-12 1.274662275626E-01 1.266257601332E-12 1.272829071800E-11 9.262402661960E-01 0.000000000000E+00 0.000000000000E+00 1.792442614101E-02 0.000000000000E+00 0.000000000000E+00 8.071124047505E-01 0.000000000000E+00 0.000000000000E+00 6.936866018814E-01 -7.700762199244E-12 -2.450652422661E-11 4.310139950910E-01
 -1.197263120977E+03 -4.088343685735E+02 6.898498629349E-12 3.533361380061E-01 7.879247277032E-03 0.000000000000E+00 -1.254437483268E+03 4.451541147812E+02 0.000000000000E+00 -4.866799939113E+02 -1.679077387051E+01 1.418948844872E-12 3.442257659100E-01 -6.724528474373E-01 0.000000000000E+00 -1.900304813103E+01 -3.219622600333E+01 0.000000000000E+00 2.818133303822E+03
 -4.082117468236E+02 -6.933880238715E+02 7.313532313377E-12 -7.582998684619E-01 -8.769608702982E-03 0.000000000000E+00 4.477813969263E+02 -7.455869559144E+02 5.349329337431E-12 -1.883131009721E+01 -1.522405205390E+03 1.373175981338E-11 -7.488334044689E-01 1.459241938517E+00 0.000000000000E+00 3.390879863041E+01 5.754456501333E+01 0.000000000000E+00 -2.437089321239E+01 2.847236715911E+03
 6.869029997659E-12 7.312035794064E-12 7.451749774699E-01 0.000000000000E+00 0.000000000000E+00 7.637406484935E-01 0.000000000000E+00 5.503925876077E-12 2.054229685118E+00 1.414964906690E-12 1.363183713222E-11 2.067414030968E+00 0.000000000000E+00 0.000000000000E+00 3.356648501851E+00 0.000000000000E+00 0.000000000000E+00 3.174679799221E-01 -7.566976989840E-12 -2.515373038076E-11 1.623815556497E+00
 1.553241367484E-01 -4.696155267031E-01 0.000000000000E+00 -1.208152472704E+03 -4.089027598493E+02 6.743259962195E-12 1.630777786345E-01 -1.465716416435E+00 0.000000000000E+00 -1.218989406530E+03 4.410097396624E+02 0.000000000000E+00 1.004178928331E+00 -1.964926267684E+00 0.000000000000E+00 3.642905211820E+01 -3.556292817885E-01 0.000000000000E+00 4.242515371574E+01 -1.549941311241E+00 0.000000000000E+00 2.792521041481E+03
 -6.176427937339E-02 1.851905707680E-01 0.000000000000E+00 -4.096532383529E+02 -6.818920463747E+02 7.197488227534E-12 -5.863595724360E-02 5.497664609182E-01 0.000000000000E+00 4.407388798478E+02 -7.356188995186E+02 5.377840120896E-12 -3.753329448802E-01 7.330018756080E-01 0.000000000000E+00 -6.615199358891E+01 6.848519750981E-01 0.000000000000E+00 7.009189298913E+01 -5.908282011747E-01 0.000000000000E+00 2.495270075662E+00 2.787150774019E+03
 0.000000000000E+00 0.000000000000E+00 7.142596311671E-01 6.658257113569E-12 7.164319497646E-12 2.435763756086E+00 0.000000000000E+00 0.000000000000E+00 1.254921946736E+00 0.000000000000E+00 5.530385823967E-12 2.952711425394E+00 0.000000000000E+00 0.000000000000E+00 3.473318698980E+00 0.000000000000E+00 0.000000000000E+00 1.110989404447E+00 0.000000000000E+00 0.000000000000E+00 1.641473829624E+00 -8.081979893472E-12 -2.469408045961E-11 3.351192539321E+00
 5.591748922688E-02 -1.610260647381E-01 0.000000000000E+00 3.515250055120E-01 6.035914739923E-03 0.000000000000E+00 -1.204371805184E+03 -4.063865240909E+02 6.918016036654E-12 3.446712611515E-01 -3.312267593226E-01 0.000000000000E+00 -5.250153958660E+02 2.508284510545E+00 1.398791010162E-12 1.563239620130E-01 6.833187195921E-03 0.000000000000E+00 -1.953394592371E+01 -3.389367390655E+01 0.000000000000E+00 4.447558536782E-01 -1.681995552484E-01 0.000000000000E+00 2.786726064555E+03
 -2.500862625403E-01 7.043298931582E-01 0.000000000000E+00 -1.553070466665E+00 -1.994657304133E-02 0.000000000000E+00 -4.144536261569E+02 -6.997600191319E+02 7.252740262256E-12 -1.528971992415E+00 1.470809273390E+00 0.000000000000E+00 3.809183188137E+00 -1.640890231975E+03 1.456113235113E-11 -6.905554784206E-01 -3.073703161816E-02 0.000000000000E+00 3.418275783001E+01 6.088922871480E+01 0.000000000000E+00 -1.964314052915E+00 7.363128786675E-01 0.000000000000E+00 -2.982790895969E+01 2.970797540830E+03
 0.000000000000E+00 0.000000000000E+00 1.363454362126E+00 0.000000000000E+00 0.000000000000E+00 6.132694711415E-01 7.063412803479E-12 7.150990326644E-12 4.087311614149E+00 0.000000000000E+00 0.000000000000E+00 3.335821369860E+00 1.495962157810E-12 1.431341148701E-11 6.023899871636E+00 0.000000000000E+00 0.000000000000E+00 2.095835200287E-01 0.000000000000E+00 0.000000000000E+00 2.931977716110E+00 0.000000000000E+00 0.000000000000E+00 2.185156629499E+00 -7.366970906391E-12 -2.651101330798E-11 5.652417881649E+00
 1.689792917892E-01 -4.697389719860E-01 0.000000000000E+00 1.025930739949E+00 1.578126264035E-02 0.000000000000E+00 1.597631950971E-01 -1.449642295366E+00 0.000000000000E+00 -1.192083480398E+03 -4.115843354824E+02 6.715704351449E-12 -1.339911829540E+03 4.973719330750E+02 0.000000000000E+00 4.565627320148E-01 1.976203844310E-02 0.000000000000E+00 3.877031456999E+01 -1.482285738645E+00 0.000000000000E+00 -1.787902033974E+01 -3.258689040061E+01 0.000000000000E+00 5.061293307703E+01 -1.749098961970E+00 0.000000000000E+00 2.887371246784E+03
 -1.900740268407E-01 5.360551571350E-01 0.000000000000E+00 -1.173121743263E+00 -1.776120978684E-02 0.000000000000E+00 -1.829974149663E-01 1.660071829533E+00 0.000000000000E+00 -4.024095215143E+02 -6.944448807392E+02 7.465176150014E-12 4.970351563008E+02 -8.273680822311E+02 5.965002312242E-12 -5.220812023361E-01 -2.308218867324E-02 0.000000000000E+00 -6.943310508889E+01 2.034585220594E+00 0.000000000000E+00 3.300391295540E+01 5.829527969352E+01 0.000000000000E+00 8.149094310764E+01 2.550324593227E+00 0.000000000000E+00 -9.695948613331E+01 2.851945752805E+03
 0.000000000000E+00 0.000000000000E+00 1.331439268328E+00 0.000000000000E+00 0.000000000000E+00 2.270179917929E+00 0.000000000000E+00 0.000000000000E+00 3.290834005088E+00 6.660902688922E-12 7.430245443056E-12 4.210096250622E+00 0.000000000000E+00 6.290910994780E-12 6.133515360654E+00 0.000000000000E+00 0.000000000000E+00 9.960143895479E-01 0.000000000000E+00 0.000000000000E+00 2.946541554699E+00 0.000000000000E+00 0.000000000000E+00 3.877858935706E+00 0.000000000000E+00 0.000000000000E+00 4.906401736979E+00 -7.273292669814E-12 -2.490664544607E-11 5.824721995225E+00
 2.655398488494E-02 -6.672013853596E-02 0.000000000000E+00 1.465528556540E-01 -1.310882380333E-03 0.000000000000E+00 2.308710038641E-02 -2.048721383605E-01 0.000000000000E+00 1.432089213226E-01 -1.384422011619E-01 0.000000000000E+00 1.414990746655E-01 -2.750042597707E-01 0.000000000000E+00 6.196017315884E-02 7.292010323424E-03 0.000000000000E+00 6.153299152043E-02 -1.360832552180E-01 0.000000000000E+00 1.840872852405E-01 -6.774606958729E-02 0.000000000000E+00 6.178182487665E-02 -2.761614229310E-01 0.000000000000E+00 1.812907503624E-01 -2.078670543743E-01 0.000000000000E+00 2.802475875301E+03
 1.918184500291E-01 -5.373084945079E-01 0.000000000000E+00 1.194185624380E+00 1.658373090297E-02 0.000000000000E+00 1.851336547836E-01 -1.684085780862E+00 0.000000000000E+00 1.172750938778E+00 -1.129053715738E+00 0.000000000000E+00 1.157407394759E+00 -2.258245926982E+00 0.000000000000E+00 5.260826917087E-01 1.673125678298E-02 0.000000000000E+00 5.160949469319E-01 -1.123208599179E+00 0.000000000000E+00 1.507420068775E+00 -5.633552080747E-01 0.000000000000E+00 5.105180068292E-01 -2.262601005866E+00 0.000000000000E+00 1.492046026297E+00 -1.708135482892E+00 0.000000000000E+00 1.555987180227E+01 2.810279375279E+03
 0.000000000000E+00 0.000000000000E+00 -8.895599314607E-01 0.000000000000E+00 0.000000000000E+00 6.222256946744E-01 0.000000000000E+00 0.000000000000E+00 -3.095187649331E+00 0.000000000000E+00 0.000000000000E+00 -1.593685586058E+00 0.000000000000E+00 0.000000000000E+00 -3.776604466176E+00 0.000000000000E+00 0.000000000000E+00 3.473317755412E-01 0.000000000000E+00 0.000000000000E+00 -1.861891760444E+00 0.000000000000E+00 0.000000000000E+00 -3.588509288557E-01 0.000000000000E+00 0.000000000000E+00 -4.062964198277E+00 0.000000000000E+00 0.000000000000E+00 -2.568879705965E+00 -7.850489890427E-12 -2.480951046669E-11 3.506378922957E+00
 1.296864169370E-01 -3.615751389143E-01 0.000000000000E+00 8.185144809314E-01 6.321894336085E-03 0.000000000000E+00 1.250972237682E-01 -1.139835469418E+00 0.000000000000E+00 8.000387556306E-01 -7.652867874229E-01 0.000000000000E+00 7.881288745913E-01 -1.531472356195E+00 0.000000000000E+00 3.531764484304E-01 4.501135908703E-03 0.000000000000E+00 3.481521943375E-01 -7.658549085976E-01 0.000000000000E+00 1.017334004210E+00 -3.810530971800E-01 0.000000000000E+00 3.454689776965E-01 -1.539211573334E+00 0.000000000000E+00 1.009644084355E+00 -1.160010838234E+00 0.000000000000E+00 4.296881262864E+01 7.780054711486E+01 0.000000000000E+00 2.744823202198E+03
 2.565332598041E-01 -7.270375669607E-01 0.000000000000E+00 1.573986200556E+00 2.712304721307E-02 0.000000000000E+00 2.464072568381E-01 -2.241601322354E+00 0.000000000000E+00 1.551425655146E+00 -1.499177887981E+00 0.000000000000E+00 1.533663600706E+00 -3.000553356675E+00 0.000000000000E+00 7.133228188887E-01 3.945408624650E-02 0.000000000000E+00 6.891738884006E-01 -1.483838959565E+00 0.000000000000E+00 2.007030165974E+00 -7.525842123432E-01 0.000000000000E+00 6.795058745765E-01 -3.000315026077E+00 0.000000000000E+00 1.985793912022E+00 -2.268310416724E+00 0.000000000000E+00 -4.647764511399E-02 1.701928190939E+00 0.000000000000E+00 2.471815250645E+02 3.011236287839E+03
 0.000000000000E+00 0.000000000000E+00 -9.343796113357E-01 0.000000000000E+00 0.000000000000E+00 2.255027417864E+00 0.000000000000E+00 0.000000000000E+00 -3.922359518734E+00 0.000000000000E+00 0.000000000000E+00 -7.611969855827E-01 0.000000000000E+00 0.000000000000E+00 -3.726317538182E+00 0.000000000000E+00 0.000000000000E+00 1.123106124027E+00 0.000000000000E+00 0.000000000000E+00 -1.875778705753E+00 0.000000000000E+00 0.000000000000E+00 1.294182429703E+00 0.000000000000E+00 0.000000000000E+00 -4.855330455731E+00 0.000000000000E+00 0.000000000000E+00 -1.707983958187E+00 0.000000000000E+00 0.000000000000E+00 5.023263712046E+00 -1.063399782070E-11 -2.650613350091E-11 8.182904930558E+00
 -1.980469400538E+01 -3.338304007099E+01 0.000000000000E+00 3.792807004585E+01 -4.046712227346E-01 0.000000000000E+00 2.112071044855E-02 -2.028576282175E-01 0.000000000000E+00 1.405788886630E-01 -1.351414386334E-01 0.000000000000E+00 1.399481104597E-01 -2.714583497591E-01 0.000000000000E+00 -1.241095296220E+03 -4.297560960839E+02 7.164192352312E-12 6.241037499846E-02 -1.359943912599E-01 0.000000000000E+00 1.829025620708E-01 -6.987570317754E-02 0.000000000000E+00 6.151914343635E-02 -2.736074161750E-01 0.000000000000E+00 1.784952230512E-01 -2.064560078271E-01 0.000000000000E+00 -1.941624971305E+01 3.271885926810E+01 0.000000000000E+00 1.356083318139E-01 2.753084787715E-01 0.000000000000E+00 2.722132810114E+03
 3.552847944467E+01 5.940873943331E+01 0.000000000000E+00 -6.720962131400E+01 7.241235133094E-01 0.000000000000E+00 6.331889550751E-02 -5.807825867139E-01 0.000000000000E+00 4.023595255014E-01 -3.883367409415E-01 0.000000000000E+00 3.979706860942E-01 -7.773783087547E-01 0.000000000000E+00 -4.342885007209E+02 -7.079972839004E+02 7.402262078452E-12 1.795693833811E-01 -3.863958453613E-01 0.000000000000E+00 5.191099526682E-01 -1.941398581605E-01 0.000000000000E+00 1.762057914292E-01 -7.784746404677E-01 0.000000000000E+00 5.138429905151E-01 -5.886705588789E-01 0.000000000000E+00 -3.247478694977E+01 5.501332635852E+01 0.000000000000E+00 4.130011084595E-01 7.794274378942E-01 0.000000000000E+00 1.977470723087E+01 2.736928725029E+03
 0.000000000000E+00 0.000000000000E+00 -2.721279034599E-01 0.000000000000E+00 0.000000000000E+00 4.780231378070E-01 0.000000000000E+00 0.000000000000E+00 -1.067433035376E+00 0.000000000000E+00 0.000000000000E+00 -3.235612021262E-01 0.000000000000E+00 0.000000000000E+00 -1.112097900024E+00 7.282874537872E-12 7.453910701835E-12 2.424656689922E-01 0.000000000000E+00 0.000000000000E+00 -5.552198941739E-01 0.000000000000E+00 0.000000000000E+00 1.904128593092E-01 0.000000000000E+00 0.000000000000E+00 -1.348477032412E+00 0.000000000000E+00 0.000000000000E+00 -6.079565819671E-01 0.000000000000E+00 0.000000000000E+00 1.313396558143E+00 0.000000000000E+00 0.000000000000E+00 2.058798389354E+00 -7.693868245079E-12 -2.437955839364E-11 5.237978448812E-01
 1.283305772682E-01 -3.800316833571E-01 0.000000000000E+00 -1.709709874690E+01 -2.933271387921E+01 0.000000000000E+00 1.256060347311E-01 -1.172275131882E+00 0.000000000000E+00 8.222193685786E-01 -7.882928457871E-01 0.000000000000E+00 8.135103425561E-01 -1.574353062881E+00 0.000000000000E+00 3.584653736219E-01 2.747492681489E-02 0.000000000000E+00 3.600782606983E-01 -7.876133398637E-01 0.000000000000E+00 1.046514154105E+00 -3.901848478956E-01 0.000000000000E+00 3.549834912940E-01 -1.588023713173E+00 0.000000000000E+00 1.035384974857E+00 -1.195475807983E+00 0.000000000000E+00 3.904118036866E+01 -6.381136294407E+01 0.000000000000E+00 -1.978008271783E+01 3.504991145922E+01 1.070938153838E-12 3.746020829648E+01 6.280976969783E+01 0.000000000000E+00 2.642957664179E+03
 1.328205800491E-01 -3.785951359448E-01 0.000000000000E+00 3.330579015483E+01 5.320495067499E+01 0.000000000000E+00 1.261263482451E-01 -1.142269428594E+00 0.000000000000E+00 7.783738654262E-01 -7.572813116069E-01 0.000000000000E+00 7.711670642486E-01 -1.522318866420E+00 0.000000000000E+00 3.792103438026E-01 3.064640669976E-02 0.000000000000E+00 3.540886860042E-01 -7.431101910257E-01 0.000000000000E+00 1.023386272375E+00 -3.895336039351E-01 0.000000000000E+00 3.467722342928E-01 -1.512197847345E+00 0.000000000000E+00 1.012642194171E+00 -1.148555392743E+00 0.000000000000E+00 1.330983143909E-02 1.332310349199E+00 0.000000000000E+00 -4.003613057065E+01 6.789372441980E+01 0.000000000000E+00 1.705686024937E-02 1.813154159211E-01 0.000000000000E+00 2.332693434345E+01 2.588821141073E+03
 0.000000000000E+00 0.000000000000E+00 -3.069735059816E-01 0.000000000000E+00 0.000000000000E+00 2.170701222682E+00 0.000000000000E+00 0.000000000000E+00 -1.887920904183E+00 0.000000000000E+00 0.000000000000E+00 5.649008321861E-01 0.000000000000E+00 0.000000000000E+00 -1.009423714954E+00 0.000000000000E+00 0.000000000000E+00 1.045999955167E+00 0.000000000000E+00 0.000000000000E+00 -5.448942181977E-01 0.000000000000E+00 0.000000000000E+00 1.917230846235E+00 0.000000000000E+00 0.000000000000E+00 -2.119819727712E+00 0.000000000000E+00 0.000000000000E+00 3.230838256328E-01 0.000000000000E+00 0.000000000000E+00 2.846914296640E+00 -1.001401039242E-12 0.000000000000E+00 5.283451495855E+00 0.000000000000E+00 0.000000000000E+00 1.282827906177E+00 -6.100996541328E-12 -2.267013951452E-11 3.783170386005E+00
 5.839860302834E-02 -1.664357061586E-01 0.000000000000E+00 3.638156518292E-01 8.992289669514E-03 0.000000000000E+00 5.674852335937E-02 -5.166076037513E-01 0.000000000000E+00 3.582420349115E-01 -3.459133908913E-01 0.000000000000E+00 3.542423397732E-01 -6.920347388437E-01 0.000000000000E+00 1.646841945734E-01 7.720339454031E-03 0.000000000000E+00 1.588821777856E-01 -3.432866421271E-01 0.000000000000E+00 4.627560109480E-01 -1.732833248959E-01 0.000000000000E+00 1.566216725064E-01 -6.927789817424E-01 0.000000000000E+00 4.575665523770E-01 -5.234747512807E-01 0.000000000000E+00 -1.258425464620E+03 4.232335838375E+02 0.000000000000E+00 -5.367177182698E+02 -1.427390079393E+00 1.238063298200E-12 6.348274544431E-02 1.807634921171E-01 0.000000000000E+00 3.386387823340E-01 3.247434032649E-01 0.000000000000E+00 2.882519574159E+03
 2.570181639704E-01 -7.245149927646E-01 0.000000000000E+00 1.582385201449E+00 2.050884531281E-02 0.000000000000E+00 2.466467255256E-01 -2.243593416554E+00 0.000000000000E+00 1.557841480336E+00 -1.502126840877E+00 0.000000000000E+00 1.538377601377E+00 -3.005675005016E+00 0.000000000000E+00 7.076050066317E-01 3.283095215725E-02 0.000000000000E+00 6.884636891444E-01 -1.489485978348E+00 0.000000000000E+00 2.007310620145E+00 -7.517096420421E-01 0.000000000000E+00 6.800190740411E-01 -3.008406824211E+00 0.000000000000E+00 1.987734458668E+00 -2.272736458229E+00 0.000000000000E+00 4.287965105954E+02 -7.200154878965E+02 5.448567883729E-12 -8.748643047776E+00 -1.632022087957E+03 1.527870678110E-11 2.788040615236E-01 7.928619417968E-01 0.000000000000E+00 1.618339210134E+00 1.606607503083E+00 0.000000000000E+00 1.646638736431E+01 2.982374316202E+03
 0.000000000000E+00 0.000000000000E+00 -1.113596905205E+00 0.000000000000E+00 0.000000000000E+00 1.210626696132E+00 0.000000000000E+00 0.000000000000E+00 -4.055652457211E+00 0.000000000000E+00 0.000000000000E+00 -1.749004289368E+00 0.000000000000E+00 0.000000000000E+00 -4.662899600397E+00 0.000000000000E+00 0.000000000000E+00 6.392107343868E-01 0.000000000000E+00 0.000000000000E+00 -2.309267676782E+00 0.000000000000E+00 0.000000000000E+00 1.242886200174E-03 0.000000000000E+00 0.000000000000E+00 -5.244638577625E+00 0.000000000000E+00 0.000000000000E+00 -2.948900154902E+00 0.000000000000E+00 5.703332574945E-12 4.750739473620E+00 2.063769485694E-12 1.515279149606E-11 7.071878896627E+00 0.000000000000E+00 0.000000000000E+00 1.827272225963E+00 0.000000000000E+00 0.000000000000E+00 4.182048913981E+00 -7.949826666083E-12 -2.592458110239E-11 6.508391055255E+00
 6.422627105617E-02 -1.721003687169E-01 0.000000000000E+00 3.771978002701E-01 3.600438885998E-02 0.000000000000E+00 6.117923547321E-02 -5.387673393257E-01 0.000000000000E+00 3.680347710391E-01 -3.575055254240E-01 0.000000000000E+00 3.631010284862E-01 -7.191656999983E-01 0.000000000000E+00 -1.865855655734E+01 3.370230884026E+01 0.000000000000E+00 1.665717692221E-01 -3.524342501416E-01 0.000000000000E+00 4.824865073094E-01 -1.830066619166E-01 0.000000000000E+00 1.638858618849E-01 -7.121884699526E-01 0.000000000000E+00 4.794242371877E-01 -5.414668403842E-01 0.000000000000E+00 -1.189518093647E+03 -4.352661217996E+02 7.186054781659E-12 3.319597391840E-01 7.709777819334E-01 0.000000000000E+00 -1.133821501606E+03 4.171325567545E+02 0.000000000000E+00 -4.344464301196E+02 -6.290414999747E+00 1.638041028051E-12 -1.957100187691E+01 -3.467289208895E+01 0.000000000000E+00 2.652536149923E+03
 1.326161658794E-01 -3.665070781791E-01 0.000000000000E+00 8.205376862455E-01 5.756541278259E-03 0.000000000000E+00 1.259530941198E-01 -1.134679510167E+00 0.000000000000E+00 7.906683592550E-01 -7.625710655470E-01 0.000000000000E+00 7.793485884301E-01 -1.521695926329E+00 0.000000000000E+00 -3.117016105726E+01 5.639293692040E+01 0.000000000000E+00 3.457896799935E-01 -7.538595283585E-01 0.000000000000E+00 1.015592682084E+00 -3.769613536052E-01 0.000000000000E+00 3.434100459141E-01 -1.523175593144E+00 0.000000000000E+00 1.006136953949E+00 -1.149207155529E+00 0.000000000000E+00 -4.370585674419E+02 -7.215522586075E+02 7.707283533159E-12 8.267643617803E-01 1.583530848844E+00 0.000000000000E+00 4.161514628952E+02 -6.903237087172E+02 4.976850623940E-12 -6.699316159096E-02 -1.424531506716E+03 1.287134179503E-11 3.338394886077E+01 6.075098048227E+01 0.000000000000E+00 2.486181600605E+01 2.723826574074E+03
 0.000000000000E+00 0.000000000000E+00 -4.891750156565E-01 0.000000000000E+00 0.000000000000E+00 1.100378368587E+00 0.000000000000E+00 0.000000000000E+00 -2.019857543342E+00 0.000000000000E+00 0.000000000000E+00 -4.442175110963E-01 0.000000000000E+00 0.000000000000E+00 -1.962882740998E+00 0.000000000000E+00 0.000000000000E+00 5.500074813803E-01 0.000000000000E+00 0.000000000000E+00 -9.860271530492E-01 0.000000000000E+00 0.000000000000E+00 5.938595431124E-01 0.000000000000E+00 0.000000000000E+00 -2.512479739396E+00 0.000000000000E+00 0.000000000000E+00 -9.437711103348E-01 7.126154814196E-12 7.686585278522E-12 2.562712400837E+00 0.000000000000E+00 0.000000000000E+00 4.138441278996E+00 0.000000000000E+00 4.956639082348E-12 1.043828061624E+00 1.269077464675E-12 1.259347822313E-11 2.651211901797E+00 0.000000000000E+00 0.000000000000E+00 3.598087961780E+00 -7.514352862152E-12 -2.424777853285E-11 2.094154431570E+00
 1.710158563739E-01 -4.791976011381E-01 0.000000000000E+00 1.031105616428E+00 1.615901548906E-02 0.000000000000E+00 1.626960873870E-01 -1.473893742369E+00 0.000000000000E+00 1.016822085442E+00 -9.859927491078E-01 0.000000000000E+00 1.005483509141E+00 -1.971345517030E+00 0.000000000000E+00 4.661810594761E-01 3.092120152310E-02 0.000000000000E+00 4.527996407916E-01 -9.717128924109E-01 0.000000000000E+00 1.321925184731E+00 -4.936029594348E-01 0.000000000000E+00 4.466576887053E-01 -1.967780506257E+00 0.000000000000E+00 1.306176895638E+00 -1.488564372424E+00 0.000000000000E+00 1.135641917618E-01 1.518872884386E+00 0.000000000000E+00 -1.453373234684E+03 -4.913344456820E+02 8.673784444286E-12 1.901194101846E-01 5.167468223871E-01 0.000000000000E+00 -1.202435567950E+03 3.522507560274E+02 0.000000000000E+00 5.370907587948E+01 1.669972504412E+00 0.000000000000E+00 3.309391498995E+01 8.717871442204E-01 0.000000000000E+00 2.980421141562E+03
 1.961304629226E-01 -5.344915070860E-01 0.000000000000E+00 1.231589604192E+00 9.585208914385E-03 0.000000000000E+00 1.878911299866E-01 -1.702709664640E+00 0.000000000000E+00 1.197715469271E+00 -1.145768952925E+00 0.000000000000E+00 1.179108114408E+00 -2.289639618497E+00 0.000000000000E+00 5.190176981300E-01 2.688967538206E-03 0.000000000000E+00 5.182586996974E-01 -1.147331085904E+00 0.000000000000E+00 1.521864373743E+00 -5.668198656584E-01 0.000000000000E+00 5.159199508617E-01 -2.302035027532E+00 0.000000000000E+00 1.508688594937E+00 -1.733723997722E+00 0.000000000000E+00 2.318432457106E-01 1.836128421077E+00 0.000000000000E+00 -5.315033351502E+02 -8.940318515036E+02 1.275287606424E-11 2.088609016321E-01 6.298327904101E-01 0.000000000000E+00 3.536514010300E+02 -6.597598889421E+02 8.420492411152E-12 -8.583280616015E+01 2.886317954037E+00 0.000000000000E+00 6.511493060021E+01 9.342910186536E-01 0.000000000000E+00 -1.947235735485E+01 3.457622369897E+03
 0.000000000000E+00 0.000000000000E+00 -5.479738543544E-01 0.000000000000E+00 0.000000000000E+00 2.729369738114E+00 0.000000000000E+00 0.000000000000E+00 -2.889973944446E+00 0.000000000000E+00 0.000000000000E+00 3.554817633655E-01 0.000000000000E+00 0.000000000000E+00 -1.973985218368E+00 0.000000000000E+00 0.000000000000E+00 1.324806025402E+00 0.000000000000E+00 0.000000000000E+00 -1.029851301820E+00 0.000000000000E+00 0.000000000000E+00 2.227074142762E+00 0.000000000000E+00 0.000000000000E+00 -3.363707902593E+00 0.000000000000E+00 0.000000000000E+00 -1.316475070896E-01 0.000000000000E+00 0.000000000000E+00 4.123326987956E+00 9.163124926095E-12 9.636748735666E-12 7.352359244387E+00 0.000000000000E+00 0.000000000000E+00 1.804106215587E+00 0.000000000000E+00 4.739546185915E-12 5.113030366073E+00 0.000000000000E+00 0.000000000000E+00 5.976219741777E+00 0.000000000000E+00 0.000000000000E+00 3.697880954357E+00 -7.910233587966E-12 -3.036771331277E-11 6.966074207885E+00
 1.725396646359E-01 -4.765089843299E-01 0.000000000000E+00 -1.180363627117E+03 4.369635708722E+02 0.000000000000E+00 1.674389604591E-01 -1.493085607966E+00 0.000000000000E+00 1.040357456610E+00 -1.000730520565E+00 0.000000000000E+00 1.022593389323E+00 -2.002551612010E+00 0.000000000000E+00 4.009927544306E+01 -4.033608410509E-01 0.000000000000E+00 4.544303256997E-01 -9.945302088452E-01 0.000000000000E+00 -1.764574970178E+01 3.432699795580E+01 0.000000000000E+00 4.518706374512E-01 -1.999221196866E+00 0.000000000000E+00 1.325425039718E+00 -1.508801331037E+00 0.000000000000E+00 1.905341119776E-01 1.534341227662E+00 0.000000000000E+00 1.040074032720E+00 2.041267452455E+00 0.000000000000E+00 1.873068667170E-01 5.351848674523E-01 0.000000000000E+00 -1.120266728892E+03 -3.814420706902E+02 6.512230509180E-12 4.715273947202E-01 2.043929226555E+00 0.000000000000E+00 3.433026813097E+01 9.214858167081E-01 0.000000000000E+00 -1.345476821958E+01 -2.778139913868E+01 0.000000000000E+00 2.666445567428E+03
 5.983328468896E-02 -1.816444717730E-01 0.000000000000E+00 4.471503896415E+02 -7.199776824344E+02 5.111135345291E-12 5.951238058574E-02 -5.603969107477E-01 0.000000000000E+00 3.908698581917E-01 -3.764610780380E-01 0.000000000000E+00 3.890263468116E-01 -7.521969572031E-01 0.000000000000E+00 6.495612141396E+01 -6.641283522125E-01 0.000000000000E+00 1.744869054705E-01 -3.772224661035E-01 0.000000000000E+00 -3.053963401318E+01 5.674875714600E+01 0.000000000000E+00 1.700536166736E-01 -7.595801141507E-01 0.000000000000E+00 4.941823370121E-01 -5.723718174761E-01 0.000000000000E+00 6.852047588141E-02 5.858330274127E-01 0.000000000000E+00 4.027479408491E-01 7.606382644777E-01 0.000000000000E+00 8.248378261857E-02 1.945157965350E-01 0.000000000000E+00 -3.769232246081E+02 -6.351631046992E+02 6.668542868801E-12 1.749448191210E-01 7.706877242944E-01 0.000000000000E+00 -6.124891382683E+01 5.889938069310E-01 0.000000000000E+00 2.734093677452E+01 5.382596726870E+01 0.000000000000E+00 2.520024238256E+01 2.751102482675E+03
 0.000000000000E+00 0.000000000000E+00 1.002346445308E-01 0.000000000000E+00 5.184935385883E-12 2.621590365605E+00 0.000000000000E+00 0.000000000000E+00 -7.794229409965E-01 0.000000000000E+00 0.000000000000E+00 1.713773844556E+00 0.000000000000E+00 0.000000000000E+00 8.298873402413E-01 0.000000000000E+00 0.000000000000E+00 1.235362272333E+00 0.000000000000E+00 0.000000000000E+00 3.441293091331E-01 0.000000000000E+00 0.000000000000E+00 2.849224646912E+00 0.000000000000E+00 0.000000000000E+00 -5.299178345251E-01 0.000000000000E+00 0.000000000000E+00 1.953988442763E+00 0.000000000000E+00 0.000000000000E+00 1.857530540660E+00 0.000000000000E+00 0.000000000000E+00 4.319279204013E+00 0.000000000000E+00 0.000000000000E+00 9.936461039359E-01 6.479212936842E-12 6.401264785980E-12 3.533426813804E+00 0.000000000000E+00 0.000000000000E+00 2.963721012248E+00 0.000000000000E+00 0.000000000000E+00 2.142680806375E+00 0.000000000000E+00 0.000000000000E+00 4.613525979897E+00 -7.617889417955E-12 -2.453460488015E-11 3.771070665466E+00