#BIOSYM hessian 1
@Type: Hessian Update
@Units
 distance: 	A
 energy: 	Kcal/Mol
#header
@natom 70

#label
C1      C2      C3      C4      C5      C6      C7      C8      C9      C10     C11     C12     C13     C14     C15     C16     C17     C18     C19     C20     C21     C22     C23     H24     C25     C26     C27     C28     C29     C30     C31     C32     C33     C34     C35     C36     C37     C38     C39     C40     C41     C42     C43     C44     C45     C46     C47     C48     C49     H50     H51     H52     H53     H54     H55     H56     H57     H58     H59     H60     H61     H62     H63     H64     H65     H66     O67     H68     O69     H70

#element
C  C  C  C  C  C  C  C  C  C  C  C  C  C  C  C  C  C  C  C  C  C  C  H  C  C  C  C  C  C  C  C  C  C  C  C  C  C  C  C  C  C  C  C  C  C  C  C  C  H  H  H  H  H  H  H  H  H  H  H  H  H  H  H  H  H  O  H  O  H 

#matrix
210
 2.778971087837E+03
 -2.287180717849E+01 2.798809194812E+03
 -6.357559873408E+01 -7.321096296571E+01 1.951413320694E+02
 3.963593874983E+01 6.547514893509E+01 -1.706284166303E+00 2.802200152620E+03
 -5.335632070547E-01 -1.019422024354E+00 7.696457175035E-01 -3.402025545186E+01 2.756926551971E+03
 7.054548673403E-01 -4.171135991823E-01 8.684008203538E+00 -1.032281527871E+02 -5.975202426993E+01 1.987867825349E+02
 -1.903181841360E+01 3.496352203677E+01 -7.746403613515E-01 -1.082664634648E-01 -4.677057401348E-02 5.849783880151E-01 2.805138329614E+03
 -3.246626480041E+01 5.879379568883E+01 -1.086744952550E+00 -7.691911613780E-02 -1.325454287671E-01 -4.282947206196E-01 2.385779199039E+01 2.745117842255E+03
 1.492358919140E+00 -2.391343065097E+00 8.883278968638E+00 -3.611336486327E-02 -2.854602166865E-01 -2.666309662802E-01 -5.985072892686E+01 -8.537871860669E+01 1.901974171320E+02
 3.621920300443E+01 -6.695911892163E+01 8.913166587324E-01 -1.958613083694E+01 3.579270953436E+01 -5.917036444933E-01 4.070013811699E+01 6.848544601569E+01 -2.589364332387E+00 2.799723076104E+03
 -8.800981801307E-01 8.637793778815E-01 -9.646367090872E-02 -3.236215139632E+01 5.921029722662E+01 -1.627508580615E+00 -5.193691674117E-01 -1.270862304426E+00 4.612851234043E-01 -1.476609191413E+00 2.801742616410E+03
 -6.322745280487E-01 1.993333708180E+00 8.958462539616E+00 1.762907874192E+00 -2.964436346148E+00 1.128838934604E+01 8.850552808048E-02 -1.304531644539E+00 9.308488143760E+00 -6.851033238725E+01 -8.255685291988E+01 2.004906384315E+02
 -1.014568584338E-01 -7.930857078069E-02 -1.108902993215E-01 -6.704573512448E-02 -2.195431062268E-02 -4.172895476843E-01 5.010203452335E+01 -8.375518484885E+01 1.970635866137E+00 -2.167255766443E+01 3.827607462913E+01 -9.763831408266E-01 2.604218206896E+03
 -2.825100953548E-01 -2.378718240697E-01 -9.990470993551E-03 -1.040979708891E-01 1.642700490697E-02 -5.345960871566E-01 -7.423540204306E-01 1.283628895290E+00 5.213295966194E-01 -3.466135882493E+01 6.117242219137E+01 -1.748058305774E+00 -1.723790072668E+02 3.050282036391E+03
 5.692401476816E-02 7.885648885980E-02 -3.177944367455E-01 -3.433158571314E-02 -2.549342591212E-01 -2.098061623434E+00 -9.313066934755E-01 2.467361332610E+00 1.291504834498E+01 1.817935282462E+00 -2.515584906417E+00 8.473910179470E+00 -5.336023559993E+01 -9.526398738767E+01 1.567801035909E+02
 -1.214406432992E+03 4.515885007577E+02 1.494830937319E+01 -4.583948007536E+02 -1.858937652571E+01 7.991828924664E+00 -1.092674940228E-02 3.994810465540E-01 4.128224799779E-01 1.779618187596E-01 5.609950958192E-01 -3.955754547335E-01 2.067335792897E-01 4.654893001277E-01 2.985055727915E-01 2.823545115181E+03
 4.442718019137E+02 -7.455569584319E+02 4.542025034241E+00 -1.535512469180E+01 -1.408003136708E+03 3.057160035151E+01 -1.341561583896E-01 3.051076689118E-01 1.268707476051E-01 1.645759964973E-01 3.294259511263E-01 -5.839791817531E-01 1.030597164541E-01 3.358377074425E-01 -1.477479513830E-01 3.902933154109E+00 2.755521608033E+03
 1.697400351705E+01 6.921989591653E+00 -8.321978126746E+01 1.474164115481E+01 3.186968545908E+01 -8.255076720593E+01 -7.042841519677E-01 4.894790985437E-01 4.811287155959E+00 -2.662596997437E-01 6.728479204678E-01 -1.067416495330E+01 3.039392132739E-01 6.161159842753E-01 1.498239445432E+00 -6.537196543458E+01 -5.976365651130E+01 1.958249511506E+02
 -1.203663419824E+03 -4.050062942569E+02 3.935506361441E+01 9.393851632993E-02 4.218638120315E-02 -1.148325908689E+00 -1.233418595748E+03 4.483032287644E+02 1.113015939571E+01 -4.692180492432E+02 -1.395236041845E+01 8.970142626570E+00 1.088981161538E-01 1.820023843158E-01 -2.964992904843E-01 -1.943242730225E+01 -3.207104595143E+01 2.514857035956E+00 2.792533019361E+03
 -4.033336079061E+02 -6.820325199591E+02 2.855171908173E+01 2.733287233401E-01 -1.061722920488E-01 3.986722748595E-01 4.573453662316E+02 -7.434281114498E+02 1.121539866948E+01 -1.748182211187E+01 -1.456118288971E+03 4.436590429130E+01 1.130801256595E-01 3.079784448257E-01 -1.272423983154E-01 3.448145146405E+01 5.761798881156E+01 -3.166045659768E+00 -3.037221826045E+01 2.762869868402E+03
 3.856765042068E+01 2.773508208241E+01 -8.214018552463E+01 -2.725256562678E-01 -9.284036503004E-01 -9.737086414202E+00 1.141452159460E+01 1.180419022385E+01 -8.338346618692E+01 1.046475990324E+01 4.526782569812E+01 -8.473389269992E+01 3.673963495669E-02 -1.232116577412E-01 -9.650776481767E+00 3.808214219600E-01 -3.954812321915E-01 9.202309508162E+00 -5.888546431006E+01 -8.271814537372E+01 1.952920651219E+02
 -1.049344009221E-01 -5.597810886635E-02 8.711261576703E-01 -1.233897135150E+03 -4.142372831484E+02 5.282773524697E+01 1.875985085962E-01 4.005759007911E-02 -9.533790289119E-02 -1.205723692253E+03 4.425781863731E+02 1.716986524661E+01 6.295556512751E-02 -1.180511397146E-01 4.043271272615E-01 3.603288520771E+01 -4.758256153383E-01 -1.623348068587E+00 4.080785580051E+01 -7.006995131026E-01 -7.668308429030E-01 2.803283528614E+03
 -1.533161363371E-01 -6.542023955935E-02 -7.071570990790E-01 -4.185956099551E+02 -6.963818016875E+02 3.195426570262E+01 7.053841703738E-02 -4.614678689667E-02 3.304234171695E-01 4.456140768748E+02 -7.430308612259E+02 9.703162320791E+00 -4.908073004048E-02 -1.004954455067E-01 -1.068068223487E-01 -6.622795722052E+01 1.464851888646E+00 2.850616176592E+00 6.698958323085E+01 -9.053263271494E-01 -1.666648500846E+00 -2.821521378397E-01 2.792912187324E+03
 -1.351526686455E+00 -3.169165561413E-01 -9.128083581179E+00 5.281490702314E+01 2.927443956890E+01 -8.555892711582E+01 1.465256848432E-01 4.387264594902E-01 4.761181900715E+00 1.870575448691E+01 9.070898637566E+00 -8.437895153493E+01 3.156796597882E-01 3.043912902473E-01 5.579013827560E+00 8.996208935154E-01 7.436060976929E-01 8.884807306928E+00 -2.605910729389E+00 -4.018720085853E-01 9.610322114054E+00 -8.057755328128E+01 -8.642343957322E+01 2.002729072744E+02
 -6.415662751213E-02 -2.813849384047E-02 1.186277885801E-01 6.078609365583E-02 -6.208008238974E-03 -2.342444892954E-01 -1.247343906904E+03 -4.414146025596E+02 4.102519970747E+01 -4.355339150589E-02 -5.689741793066E-02 -6.717362760867E-01 -5.665642268785E+02 -1.729429580759E+01 1.262992441536E+01 9.725568454259E-02 7.940055733047E-02 2.895358426068E-01 -2.154338914604E+01 -3.643054607640E+01 1.989660931525E+00 -2.042630114927E-02 -6.182367578721E-02 1.468786774252E-01 2.605655033899E+03
 3.121081430304E-01 2.955912986188E-01 1.497053263529E-01 1.308302601585E-01 4.889684168505E-02 5.243373149713E-01 -4.569906698836E+02 -7.642984429477E+02 3.321425043517E+01 1.999444225516E-01 3.114203035994E-01 4.937592994853E-01 -2.682235863524E+01 -1.810269790541E+03 6.158540812041E+01 -5.307157090687E-01 -4.051860666119E-01 -6.177879113480E-01 3.590776466820E+01 6.064710307406E+01 -2.850290629352E+00 5.632918336876E-02 8.977576288139E-02 -1.310869043851E-01 1.919859752549E+02 3.020152176282E+03
 1.549544942705E-01 1.936516534285E-01 4.661601590368E+00 -2.943002511890E-02 -5.913644531231E-02 2.730031813081E-02 4.148550407437E+01 3.320194928139E+01 -7.896876696474E+01 -5.085203717779E-01 -6.901613409299E-01 -1.041483532540E+01 1.307299973468E+01 6.144730776126E+01 -7.291838771156E+01 1.618618254117E-01 -1.126741722792E-02 3.657768433578E-02 -7.983971557522E-02 -1.038571477744E+00 1.007049137045E+01 3.253566341699E-01 -1.432536590081E-02 3.442204829910E-01 -6.383237603134E+01 -1.028253583445E+02 1.570007264164E+02
 1.961703990705E-01 1.463722711704E-01 1.090819596237E-01 1.198384956095E-01 -8.314796573515E-02 6.430069626848E-01 -7.217424348600E-02 1.414896165526E-01 -1.511880442713E-01 -1.241106116959E+03 -4.300135715176E+02 4.349352886753E+01 -1.258451236582E+03 4.707909111960E+02 1.282431660268E+01 -2.809877854965E-01 -2.255167243292E-01 -4.747388069536E-01 3.847828483947E+01 -7.576193791391E-01 -9.469107502955E-01 -2.017020620573E+01 -3.325285090411E+01 1.778074423994E+00 5.262566816986E+01 -1.084473558070E+00 -1.085093316664E+00 2.855852509755E+03
 2.586560879341E-01 3.122687852486E-01 4.881826125879E-02 1.135357518671E-01 -3.246907605514E-02 3.145358445369E-01 -1.105369310183E-01 1.890626705972E-01 -5.587464267978E-01 -4.279315276395E+02 -7.214393138834E+02 3.146813032384E+01 4.603235668107E+02 -7.971565535395E+02 1.247309250490E+01 -5.713634394695E-01 -4.185156599928E-01 -7.310882844637E-01 -6.908462061998E+01 8.543973070975E-01 1.869854610159E+00 3.579479514626E+01 5.967729586378E+01 -2.513747626636E+00 8.417319595761E+01 -1.728135828100E+00 -1.540061134342E+00 -4.090190325692E+01 2.878581079682E+03
 -4.977017223223E-02 2.358697837443E-02 3.737485783109E+00 2.439131688787E-01 3.551665232168E-01 4.166669661262E+00 -4.347136677092E-01 1.307414293454E-03 -1.037245201711E+01 4.192886968414E+01 3.003655934744E+01 -8.736506972511E+01 1.411379083765E+01 1.255166630076E+01 -7.746894029582E+01 3.597737061069E-01 -3.586778451451E-02 -5.277011272568E-01 2.344555236895E+00 4.559088344441E-01 1.023409225438E+01 5.503809593590E-01 -6.136949941109E-01 1.160252420061E+01 -3.957862133800E+00 1.759840934514E-01 1.194797032861E+01 -6.349105105494E+01 -8.672913713228E+01 1.964525808297E+02
 2.151740775996E+00 1.427243603716E+00 -2.135018232503E-01 -5.754841549142E-01 -6.754695781796E-01 1.903725723604E-02 -1.083455520451E+00 1.461154865749E+00 7.714438183385E-02 -1.214058267774E-01 2.261149645832E+00 -3.954714821021E-02 3.785991289627E-01 2.149104112299E+00 -3.936002355449E-01 -2.753695848128E+00 -2.627542354670E+00 -4.995419791712E-02 -1.064633043572E+00 -2.141855693250E+00 2.801919568773E-01 2.324220370794E+00 9.025237753885E-01 5.430109159067E-01 7.620807312197E-01 -2.206193316860E+00 5.867546199328E-01 -8.919694640943E-01 -2.404500620418E+00 9.999974283524E-01 2.838381384350E+03
 -1.267720869446E+00 -1.631839500078E+00 1.144157056575E+00 -1.152548895742E+00 4.590746223332E-01 2.625463192266E+00 2.730496508654E-01 -1.330773907459E+00 -1.200284414329E-01 -4.758181742491E-01 -1.427017532052E+00 1.978179755598E+00 -6.561159253021E-01 -1.698963942569E+00 -1.627997226273E+00 2.270704479646E+00 2.118060479346E+00 -2.256262112664E-01 1.197560909554E+00 1.291437820440E+00 -3.328437366859E-01 -1.203598992710E-01 -2.998338096388E-01 -7.149226118280E-01 -2.515475709043E-01 1.789126713340E+00 -1.727201048600E-01 6.458496994072E-01 1.533659306723E+00 -1.253912890762E+00 -2.344887149600E+01 2.720787591368E+03
 -2.752229274923E-01 -9.102663165448E-01 -2.934226707635E-02 -7.347671010504E-01 4.965711721136E-01 9.962629515428E-01 -1.421983031515E-01 -6.637595270567E-02 -1.500279157826E-01 -1.366980753282E-01 2.824504667420E-02 1.190613989660E+00 5.710485676957E-02 5.258353060426E-02 -1.187135791505E+00 1.388695654199E+00 5.916715200340E-01 3.806343107810E+00 4.018727742230E-01 -1.111418111227E-01 2.957078032523E-02 7.780455149269E-01 -3.463105442788E-01 1.048669400795E+00 1.472325442049E-01 -9.202074150728E-02 5.956505013761E-01 -2.100222721401E-01 -7.239980794563E-01 3.138990927455E+00 -2.308335197317E+02 1.268787823417E+02 2.267279852159E+02
 2.028533518546E+00 1.494462763869E+00 -3.298674692825E-01 3.280749303293E-01 -3.027681582087E-01 -7.350075839484E-01 -7.164901166445E-01 8.957578570121E-01 -3.674274221567E-01 1.789556123953E-01 2.105598684556E+00 2.932332102871E-02 2.583523982355E-01 1.642747517449E+00 -1.030738926231E+00 -2.906810104531E+00 -2.354643106791E+00 5.155264901150E-02 -9.558617365480E-01 -2.195177686400E+00 2.521936473997E-01 1.333425569008E+00 5.345600329681E-01 -6.043289917021E-01 4.272148392747E-01 -1.781924584793E+00 2.440908006885E-01 -1.013611270256E+00 -2.333081919401E+00 -2.358835496006E+00 3.139429660394E+01 9.278001549584E+01 2.014521561681E+00 2.688770531462E+03
 -8.280086646814E-01 -4.760660817981E-01 6.256314659118E-03 -4.636738706114E-01 5.868434801937E-01 4.741669977576E-01 -2.251293991553E-02 -3.525715319122E-01 -1.008096559437E-01 -3.007744896234E-01 -4.217641091099E-01 7.781932633492E-01 -2.609882027874E-01 -4.496805128361E-01 -6.093128125195E-01 1.278570276202E+00 6.175061993336E-01 -7.370337941020E-01 6.973371876597E-01 5.299743959146E-01 -3.022766410532E-01 8.359008840227E-02 -3.711818659091E-01 1.730486288337E-01 -5.031829901008E-02 5.295279022143E-01 1.076744596000E-01 4.499567854590E-01 2.956618648817E-01 1.097671144002E+00 3.441765515139E-01 -3.444642029356E+00 7.478480700697E+00 2.684787844915E+02 2.901288673030E+03
 -1.021295355798E-01 -1.314699311840E+00 1.849591119462E+00 -2.397398936408E+00 -2.180200562017E-02 -1.001091082977E+00 8.328018207497E-02 -1.014379228574E+00 -4.855831528179E-01 -9.719514437220E-01 2.232578862140E-02 -1.230647230575E+00 -5.886759685322E-01 -6.905621405676E-01 -2.382491533243E-01 1.894924175432E+00 2.471096283386E+00 3.233940442657E+00 2.670834311859E-01 5.488977390250E-01 1.977997069889E-01 -6.014683782688E-01 -1.762960113097E-01 -5.453490521174E+00 -4.455738274860E-01 5.203773435231E-01 -1.676480978046E+00 -1.118914480202E-01 1.010788751555E+00 -1.646890775884E+01 1.952343788208E+00 -1.392133992926E+01 7.556536045933E+00 -3.044684604901E+02 7.575732217684E+01 2.405418246301E+02
 -2.086065878304E+01 -3.429781033627E+01 1.841184051164E+00 3.726230226077E+01 -5.471459393603E-01 8.428480778674E-01 7.736914636948E-02 -2.628328456355E-01 -1.620342525444E-01 -2.102912297404E-01 -3.876192628810E-01 1.197542769972E-01 -1.301569583188E-01 -3.694892865683E-01 -4.228438453745E-02 -1.269050339443E+03 -4.330418777494E+02 3.614752688346E+01 4.548241171133E-01 4.546158294239E-01 1.137122434845E-01 8.824629743499E-02 -2.959716113366E-01 5.085882983315E-01 -5.866272026234E-02 3.947034637570E-01 8.514145476160E-02 2.408592005783E-01 2.107482569973E-01 1.393281674433E-02 -1.616326752753E+01 3.360016729229E+01 -1.372658657439E+00 3.023521817362E+00 -1.138398093710E+00 -5.803370478667E-03 2.777498893330E+03
 3.586522821109E+01 6.032626196535E+01 -1.430335985130E+00 -6.880795944948E+01 2.001656095427E+00 3.403954126981E+00 2.389028959939E-01 -7.500902296114E-01 2.575408860959E-02 -2.112510865287E-01 -8.436346041895E-01 8.281344866729E-01 -3.040134498640E-01 -9.431598433822E-01 -4.588539929662E-01 -4.374276854314E+02 -7.177881963966E+02 2.084750464357E+01 7.011084338290E-01 9.242944488589E-01 -1.321337526065E-01 -4.041175829581E-01 -3.564097209823E-01 1.362012855218E-01 -2.071518773336E-01 1.043849807546E+00 -9.286114634243E-02 4.537554177815E-01 9.334345579848E-01 -1.492795432824E-01 -2.569405405986E+01 5.440031738585E+01 -3.935518988872E+00 6.900785875278E+00 -1.114097874953E+00 -3.880527364412E+00 2.630946333373E+01 2.786180514569E+03
 -6.572822862451E-01 -3.333767881164E+00 1.039432580470E+01 -2.579115937407E+00 1.183514992439E+00 1.033005057732E+01 -2.034444078056E-01 -4.944162535130E-01 -1.961758798866E-01 -9.048250197781E-01 -5.507394971708E-02 1.190686547916E+00 -2.246391096210E-01 -7.883040007661E-02 -1.140682587566E+00 4.267006458631E+01 2.644382903372E+01 -8.534926280239E+01 8.078868799144E-01 9.726207010822E-01 4.363487900816E+00 1.234788197728E+00 -6.187441365010E-01 4.145363469672E+00 6.465300346424E-02 1.229164345238E-01 1.668312699181E-01 -2.996832057703E-02 -3.342416218677E-01 -3.148433833483E-01 2.014756398451E+00 -1.215098627752E+00 8.614943185484E+00 1.248953484290E-01 -5.202699206043E-01 3.467373564276E-01 -8.815168301248E+01 -4.272896312368E+01 1.958873987012E+02
 2.638366184976E-01 -3.248338502134E-01 3.079562983837E-03 -1.967450413938E+01 -3.126142092632E+01 5.513503429278E-01 -3.474683160667E-01 -1.866559827876E-01 4.801803405647E-02 -5.936365813128E-01 2.742457249866E-03 -6.957761293626E-01 -1.243746963242E-01 -1.972526581098E-02 4.541205806323E-01 -4.820309252466E-01 6.575230880262E-01 1.983079667120E-01 3.084467402863E-01 6.119394132582E-02 2.678538621106E-01 1.158844732116E+00 3.111589011540E-01 -3.672350449163E-02 1.844631111155E-01 1.159143390335E-01 -3.358086218791E-02 1.875954978788E-01 -4.511547288644E-02 -1.645858372827E-01 3.566639933768E+01 -7.256785369352E+01 -9.277306328007E+00 -2.093742155048E+01 4.175462856575E+01 1.269065975781E-01 3.945892405538E+01 6.445828350866E+01 1.954250543872E+00 2.772122057737E+03
 7.794964486686E-01 8.487770803652E-01 -1.112817204072E+00 3.529919777079E+01 5.563085803582E+01 -4.809235172443E+00 -2.511073468330E-01 5.678681969245E-01 -3.270405755583E-02 2.666973204430E-01 9.468784290923E-01 -3.791356756781E-01 2.986997506497E-01 8.410885804869E-01 4.999005703678E-02 -6.971729043035E-01 -1.657599627868E+00 -1.676917492173E+00 -5.558071172478E-01 -1.068076956842E+00 7.096391317814E-02 1.777822765692E-01 3.042390096834E-01 7.152618051393E-01 1.819378138329E-01 -8.596930402339E-01 2.120151897730E-01 -5.319357960660E-01 -1.040982593390E+00 9.272438797449E-01 -5.880628529867E+00 7.504397228034E+00 8.489738325455E-01 -4.723301771151E+01 7.544051291615E+01 8.142851644990E+00 2.297791101355E-01 1.722223652643E+00 3.320956110604E+00 -5.966116234044E+01 2.739312621034E+03
 1.927271990910E+00 -3.466829431181E-01 -1.484055355333E+00 3.579732606582E-02 -5.160331987321E+00 1.656471836189E+00 1.145090246240E+00 -9.052150372510E-01 1.033191189540E+00 -1.370814954759E+00 -2.408604838985E+00 -6.485872392074E+00 -2.973269481609E-02 -1.063898780891E+00 6.428544910790E+00 -2.833512119389E+00 2.774086540785E-01 -4.967788705526E+00 -1.618414868160E-01 2.242077539760E+00 1.720285425024E+00 3.001626243672E+00 1.615625139343E+00 6.004538192977E+00 -6.146378463332E-01 1.288264685540E+00 -5.553850858267E-01 2.069445983952E+00 1.814120233860E+00 1.094088663324E+00 -3.683108075725E-01 -4.503464833505E+00 7.129511283429E+00 6.608012401990E-01 -5.583010365906E+00 1.195996261226E+01 -3.425575813421E-03 2.960274252880E-01 4.142296200403E+00 -2.416065849333E+02 4.128456532669E+01 2.296820153913E+02
 -2.443796560259E+00 -2.261012917671E+00 1.020570125043E+00 9.494271573018E-01 -7.903228431064E-01 2.464725235030E+00 1.194612069619E+00 -1.711272104480E+00 1.431575223075E-01 2.949231502760E-01 -3.481262554804E+00 1.911558138132E+00 -6.936838197630E-01 -3.076896608968E+00 -1.199544462061E+00 2.841457813153E+00 2.867032767085E+00 -4.571390515470E-01 1.109727955962E+00 2.467116355487E+00 -5.413731479457E-01 -3.284383138105E+00 -4.452837216753E-02 -1.097037751678E+00 -8.186705785129E-01 2.874726320488E+00 -8.845683604736E-01 7.012397686349E-01 4.097053413169E+00 -1.553600959895E+00 -1.258322569199E+03 4.459904683252E+02 1.465999044752E+02 -4.801489726510E+02 -3.337084825430E+01 4.688521746164E+01 -2.744934407390E+00 -8.878201141829E+00 2.451035313461E+00 -3.031976699295E+00 5.845669234392E+00 -4.874743377498E+00 2.541104772140E+03
 4.232725853522E+00 3.127591538813E+00 -1.309532276038E+00 2.325091194539E+00 -2.621238593049E+00 -2.377984402017E+00 -8.224764028243E-01 2.397939073622E+00 3.690048696653E-01 1.166597594614E+00 2.937726599762E+00 -2.209068208359E+00 1.234922530390E+00 3.120027439503E+00 1.273975730131E+00 -6.777739899314E+00 -4.930661758261E+00 7.872241639036E-01 -2.876559271311E+00 -3.700526236644E+00 1.041084560234E+00 1.034040744638E+00 1.935709692093E+00 1.342340982599E+00 7.854653867234E-01 -3.470784126546E+00 4.935722831490E-01 -2.205684101218E+00 -3.023221442795E+00 1.725787017813E+00 4.780094017049E+02 -7.656664969726E+02 -7.995293235984E+01 -7.773742341396E+01 -1.604550210223E+03 -5.428976253485E+01 6.346062708863E+00 9.752380697331E+00 -1.319802072515E+00 -3.515597088612E+00 -1.117633968829E+01 5.639525509159E+00 -9.543001506755E+01 2.754396466046E+03
 -3.335587499805E-01 1.514591083129E+00 -1.677021465316E+00 3.210350885079E-01 4.300228902847E-01 -5.185824777954E+00 -7.249331614481E-01 7.192448316857E-01 8.059275532571E-01 -6.051286068085E-01 9.003020277922E-01 -5.320931641279E+00 6.105091405959E-01 1.048070422937E+00 4.839543322886E+00 2.308661100357E-02 -3.153899154813E+00 2.610625708396E+00 1.625052509106E-01 -7.036080823164E-01 1.381570579816E+00 4.393682726546E-01 1.608000397665E-01 1.961354348511E+00 3.379327775237E-01 -8.008361218381E-01 -1.463805998671E-01 1.223761807400E-01 -6.223767674174E-01 2.362469719905E+00 1.536333546720E+02 -6.233331497228E+01 -1.093593188061E+02 4.477765035371E+01 -6.436088683987E+01 -9.011903603144E+01 -1.786211771747E+00 5.452709691193E+00 9.138672836615E-01 4.615515362525E+00 -1.632215578324E+00 4.523643273325E+00 -3.522290540403E+02 7.587391914226E+01 3.131082357612E+02
 5.677852583183E-01 6.252969737146E-01 4.753115508993E-01 1.018485115026E+00 4.242980466865E-01 1.123408567677E+00 1.470408875352E-01 2.685348229261E-01 -8.050047727381E-02 4.587489876621E-01 4.423742655553E-01 5.517255612586E-01 1.069586252790E-01 4.049076829057E-01 -5.237057494811E-01 -1.995626405025E+01 3.519942531614E+01 1.917922884135E+00 -5.012103518041E-01 -4.708217610753E-01 -1.457391255825E-01 -4.481922407972E-01 -2.054965478960E-02 8.563421490883E-02 -9.146233672934E-02 -5.004492576474E-01 4.572152889923E-02 -2.901437772012E-01 -4.767439893863E-01 -4.174925110683E-01 -1.250367510725E+03 -4.215454781481E+02 7.150980882479E+01 -4.083395938273E+00 1.500898055362E+00 2.850977791266E+00 -1.151522447261E+03 4.287212141370E+02 3.294513793103E+01 -4.579279254226E+02 -2.668868316386E+01 2.190801586721E+01 -1.284356928505E+01 -4.178186384222E+01 -2.448585891506E+00 2.748501990523E+03
 7.001518427165E-01 5.180262239732E-01 2.295605682722E-01 -1.359031265010E-01 -1.589181402326E-01 -1.609522729809E+00 -8.798873910113E-02 2.648968123059E-01 -3.438850387645E-01 1.481914086418E-01 4.634170609049E-01 6.201168424413E-01 1.699751932813E-02 3.688339115459E-01 -1.008195858681E+00 -3.373342938779E+01 5.767675847536E+01 1.276473349371E+00 -2.367791793265E-01 -6.739797462093E-01 3.682720205674E-02 5.899876835478E-01 1.662987090865E-02 -4.492780713593E-01 9.670820310797E-02 -4.972237690537E-01 2.583328782533E-01 -2.478186688110E-01 -8.574570643607E-01 -3.799339448627E-02 -4.413529403987E+02 -7.091120058431E+02 1.673979975144E+01 -1.823678621038E+00 5.052886875021E-01 7.526202191582E+00 4.286091697615E+02 -7.185345071925E+02 -1.285039532893E+01 -9.434348141109E+00 -1.466975910683E+03 -2.065228605689E+01 4.546385481796E+01 6.033500645789E+01 -1.086706471953E+01 1.543544112930E+01 2.776269786775E+03
 -1.225045196265E+00 1.251652385606E-01 5.056106282101E+00 -1.397349927515E+00 2.610339524125E+00 -7.553748507814E+00 -6.262239345873E-01 -2.452640208754E-01 -1.449169752683E-01 -4.667356631674E-01 1.007916847399E+00 9.481822913979E-01 -2.618069664376E-01 1.130793081812E-01 -9.055641494875E-01 3.446254450374E+00 -1.393227297939E+00 7.946916174451E+00 9.246862897245E-01 -2.864035462356E-01 -4.437852874454E-01 -6.903865717046E-01 -1.036665241834E+00 -9.560436520947E-01 1.170725077913E-01 -7.803344196546E-03 -1.163843367980E-01 -9.941127665411E-02 -2.527065043684E-01 -1.818072395308E+00 5.362643078503E+01 3.732684902285E+00 -8.818555845229E+01 2.192871628754E+00 -5.073402363440E+00 -9.631222176616E+00 4.504014823007E+01 -1.319700299243E+01 -8.048206254706E+01 3.051450279778E+01 -7.590081907222E+00 -8.695412243224E+01 8.131349497034E+00 1.166547197651E+01 7.885923922438E+00 -1.225522832059E+02 1.454709027975E+01 1.986803693091E+02
 -8.830066214186E-01 -6.206626643944E-01 4.879165113558E-01 7.023907684338E-01 6.757460873602E-02 1.728247101190E+00 6.543963279647E-01 -3.982953632387E-01 -7.367549059461E-02 3.482325785444E-01 -1.027434428522E+00 1.312560855471E+00 -1.825690950364E-01 -8.104765883611E-01 -7.222574543932E-01 1.038655106706E+00 1.175784487046E+00 -5.023697419335E-01 1.646826679852E-01 1.070085761322E+00 -5.024441787515E-01 -1.100395527914E+00 -4.409978334197E-01 -2.617974364203E-01 -3.770998968777E-01 7.494666765135E-01 -7.554979308562E-02 3.725161304999E-01 1.033933026372E+00 2.048645943438E-01 7.729688341818E+00 -2.693849155213E+00 3.782740956317E+00 -1.433424947338E+03 -5.076064455144E+02 1.530290774634E+02 -1.022265783062E+00 -2.313276579772E+00 3.274973088690E-01 -1.302578969276E+03 4.604297582937E+02 1.292738798046E+02 4.205150633834E+01 1.208044759636E+01 -7.983098961003E+00 3.985074456987E+01 -6.720520074662E-01 -8.679012820890E+00 3.025419180517E+03
 -1.873684188708E+00 -1.219424942771E+00 3.234291306827E-01 -2.438772455577E-01 2.680685242176E-01 1.032466775113E-02 5.531342481579E-01 -7.563310628997E-01 2.524516615644E-01 -1.977185808409E-01 -1.643430537848E+00 -4.393611911536E-01 -2.277517587022E-01 -1.325188022011E+00 1.052725059928E+00 2.655223857143E+00 1.931733752630E+00 5.089130750697E-01 8.145728881935E-01 1.838524557080E+00 -1.828753324918E-01 -1.360095921216E+00 -5.275582790107E-01 -1.336852068707E-01 -3.905528459505E-01 1.439280459173E+00 -4.489901959266E-01 8.166153870653E-01 1.984019738701E+00 -5.067009519772E-02 1.159285953279E+01 -9.412063112091E+00 -3.957360450855E+00 -4.999761268585E+02 -8.393452525263E+02 3.211353036604E+01 -2.627673936840E+00 -4.827522358111E+00 -2.870047554363E-01 4.469792971361E+02 -7.565996668727E+02 -5.467581095838E+01 -1.004721832677E+02 2.432364603805E+01 2.167936463581E+01 7.417571907713E+01 1.545988378967E-01 -8.802113336304E+00 4.242821345101E+01 2.538020195328E+03
 8.282101161111E-01 -8.419086682938E-01 1.548175235427E+00 1.232258678205E-01 9.527680432212E-01 1.295431710721E+01 1.009496034074E-01 -9.242551414079E-01 -1.090554450510E+00 5.160309693187E-01 -3.172651381975E-02 8.772599634939E+00 -9.651164122850E-01 -7.401333222933E-01 -7.998237525475E+00 -1.035848001383E+00 9.735206039861E-01 -5.506568196224E+00 -1.286971708561E-02 -6.941299215406E-02 -2.467591579139E+00 1.187848897656E+00 8.348916201045E-02 -1.647396510693E+00 -8.153897933512E-02 6.476426530801E-01 7.840429081857E-01 -3.670472530265E-02 -2.178173700220E-01 1.069600561406E+00 -4.963406308784E+00 9.110937139528E+00 -5.679144519510E+00 1.537693909850E+02 3.706547786567E+01 -9.544663395838E+01 1.996153372150E+00 1.636235889388E+00 9.827636762898E+00 1.364676426216E+02 -5.785486056054E+01 -1.183824297077E+02 1.263103322422E+00 -4.313678505051E+00 -6.584316244273E+00 -1.486955557287E+00 -2.736939645084E-02 1.442446019245E+01 -3.165761190372E+02 4.406308752668E+01 2.225221891347E+02
 -6.050453651009E-01 -3.291906413465E-02 -3.769798557966E-01 -1.229694226547E+03 4.609231432605E+02 4.248242762933E+01 3.172495628030E-01 -9.811771292074E-03 9.642629508539E-02 3.059573128302E-01 -3.432297900486E-01 3.939513341793E-02 2.568470158005E-02 -2.623584545278E-01 3.204309009800E-01 4.202124844154E+01 -8.943465779882E-01 -2.561511948093E+00 -8.377501902865E-02 2.951911716707E-01 -1.530454354795E-01 -2.137699749703E+01 3.727371434398E+01 -4.338737347914E-01 -1.998343849679E-01 2.178103855278E-01 -1.528238831593E-01 3.833386211043E-02 5.654642170717E-01 -6.896883804934E-01 5.600192183036E+00 -1.589520634842E+00 6.741130718118E-01 3.279867231310E+00 -5.656305582852E-01 1.687211784905E+00 -1.039487253853E+00 -1.675620222586E+00 1.702891589024E+00 -1.125120106985E+03 -3.766394574942E+02 8.091959567775E+01 -7.520039649283E+00 4.142259235359E+00 1.940969950958E+00 3.382430249768E+01 -3.051749329738E-01 -1.868063272499E+00 -2.025135067321E+01 -3.424762888993E+01 1.008064065444E+00 2.724252994372E+03
 4.474236003358E-03 -1.863107321755E-01 7.855974819888E-01 4.720849778190E+02 -7.657558863691E+02 9.939346615302E-01 8.553766994650E-02 -7.148786358302E-02 4.490748201896E-02 7.064273213453E-03 -1.112406288890E-01 2.542343596862E-01 -5.231926283757E-02 -8.498509358471E-02 -5.408228257683E-02 6.635882118357E+01 -4.946882257983E-01 -2.436057407138E+00 2.989286784141E-02 2.143824623424E-01 1.530161285533E-01 -3.258467172065E+01 6.032751561846E+01 1.157003055474E+00 -4.715483104597E-02 5.457531662864E-02 -3.180277128266E-02 1.067265134826E-01 9.271936107613E-02 -4.134508060745E-01 9.402956037381E-01 -6.363884885802E-03 -1.368864804052E+00 -2.095867652677E-01 -5.999588077032E-02 -6.569429835947E-01 -4.042048267414E-03 -7.957627266008E-02 -3.527634457671E+00 -3.779187339032E+02 -6.508940257431E+02 3.850389330940E+01 1.938508321976E+00 1.452765773229E+00 1.008367051385E+00 -6.454688157543E+01 1.373257779549E+00 3.378453503725E+00 3.310765428622E+01 5.913976481416E+01 -2.603357105791E+00 -2.888551133199E+01 2.816530077556E+03
 -5.730295085513E-01 1.966550370634E+00 5.325113136560E+00 4.245341653016E+01 2.624143383699E+00 -8.524944161981E+01 -5.655853089472E-02 6.742829314287E-01 -3.327525972847E-01 1.350790233982E+00 1.449997455681E+00 5.170538930810E+00 9.905751591767E-02 3.096991585022E-01 -1.022768836952E+00 -7.138540396800E-02 -2.546485575408E+00 9.551287443397E+00 -4.552082992121E-01 -1.897914226712E+00 -6.134705290392E-03 6.699258792222E-03 -2.486406100411E+00 8.280626432459E+00 5.859774357121E-02 -5.271379006002E-01 -2.129752095838E-01 -7.118963986716E-01 -2.609568709226E-01 -4.169125870891E+00 2.512190039999E+00 3.910067658765E+00 3.570196154186E+00 -1.018852348761E+00 2.228983627674E+00 1.803794281318E+01 -4.814313827145E+00 -1.251511340155E+00 -7.781047821008E+00 8.319521679924E+01 2.614383797292E+01 -9.016651933089E+01 2.916631189103E+00 -8.179048337599E+00 -3.729338445396E+00 -4.400077869073E+00 5.567789692923E+00 9.045827248301E+00 8.100355848833E+00 6.268948325084E+00 1.092696243609E+01 -1.433050169795E+02 -1.023777697272E+02 2.036832837295E+02