#BIOSYM hessian 1
@Type: Hessian Update
@Units
 distance: 	A
 energy: 	Kcal/Mol
#header
@natom 75

#label
C1      C2      C3      C4      C5      C6      C7      C8      C9      C10     C11     C12     C13     C14     C15     C16     C17     C18     C19     C20     C21     C22     C23     C24     C25     C26     C27     C28     C29     C30     C31     C32     C33     C34     C35     C36     C37     C38     C39     C40     C41     C42     C43     C44     C45     C46     C47     C48     H49     H50     H51     H52     H53     H54     H55     H56     H57     H58     H59     H60     H61     H62     H63     O64     H65     O66     H67     C68     O69     O70     H71     O72     H73     O74     H75

#element
C  C  C  C  C  C  C  C  C  C  C  C  C  C  C  C  C  C  C  C  C  C  C  C  C  C  C  C  C  C  C  C  C  C  C  C  C  C  C  C  C  C  C  C  C  C  C  C  H  H  H  H  H  H  H  H  H  H  H  H  H  H  H  O  H  O  H  C  O  O  H  O  H  O  H 

#matrix
225
 2.776061896467E+03
 -2.288195945177E+01 2.804877152544E+03
 -2.506376508457E-01 9.689087161615E-01 1.913529322875E+02
 3.845786183927E+01 6.601732246848E+01 8.870386502343E-02 2.807588684936E+03
 -4.376746791170E-01 -6.102876596024E-01 5.104269060218E-02 -2.378281475173E+01 2.750222438581E+03
 1.308376326092E-01 -2.301646248814E-02 8.826535503580E+00 4.018466240893E+01 4.471284551832E+00 1.928201624554E+02
 -1.903702158170E+01 3.480264751355E+01 3.199387545818E-01 2.129324747547E-01 2.917968363234E+00 -9.109830903805E-02 2.811034284347E+03
 -3.298493891740E+01 5.912343120871E+01 6.152104644988E-01 -7.390990006028E-02 1.457529212076E+00 2.207614824521E-01 1.836252654070E+01 2.740965068660E+03
 5.961885703582E-02 2.926892390294E-01 8.554108505002E+00 -4.102456155403E-01 2.206050418925E-01 1.202263438522E+00 -5.421642925552E+00 2.736373061293E+01 1.917950053280E+02
 3.613136519499E+01 -6.679381046305E+01 -8.123198824380E-01 -1.957727960575E+01 3.580784273699E+01 8.336430728801E-01 3.953072304642E+01 6.739728019877E+01 1.234527567488E+00 2.789622360299E+03
 -1.023408587370E+00 1.209670539833E+00 1.529066934459E-01 -3.249588575701E+01 5.429951672758E+01 9.327716914575E-01 4.047936018271E+00 2.810672149450E-01 2.760863226793E-01 -6.071672433356E+00 2.807454352099E+03
 -8.618133859554E-02 2.241284027329E-01 8.561143783449E+00 -9.155565599237E-01 1.136902144072E+00 8.997283417304E+00 -1.346752224902E-01 -1.718142233855E-01 1.337287128947E+01 7.601792297407E+00 2.789754865434E+01 1.962430830829E+02
 9.025531577719E-01 2.529256078235E+00 -7.794954381278E-01 -1.269824270655E+00 1.798930425591E+01 -2.192344838426E+00 2.339767268334E+01 -8.880572067858E+01 -3.338825532990E+00 -9.212629128764E+00 7.909428344276E+01 -8.457137392718E-01 2.243036716167E+03
 1.024122239478E+00 4.490150129514E-01 -5.043619177022E-01 -3.609013613224E-01 1.988012396641E+00 -1.397056385376E+00 -1.186751684315E+00 4.331315166788E+00 -5.208340929888E-01 -2.597244418221E+01 7.382768806043E+01 2.114323036440E-01 -2.320833515250E+02 2.961648988278E+03
 -3.723428361185E-01 -1.459197464635E-01 2.894203980196E+00 -1.146927783744E-01 -4.448775913442E-01 9.867813298287E-01 -3.935931009277E-01 1.382019451301E+00 -1.038591651013E+01 -3.177463952573E-01 -1.976160817729E+00 -4.572606423801E+00 4.288982170924E+00 3.508748466550E+01 2.852616376398E+02
 -1.219458272509E+03 4.489567878117E+02 -1.097735743955E+00 -4.572541992331E+02 -1.441753423671E+01 -2.985313220547E+00 2.420441396567E-01 5.868962027081E-01 2.794099845627E-02 9.328676733795E-01 9.052978494664E-01 2.397332662260E-02 -1.995973954795E+00 -2.681903880277E+00 3.750419466172E-01 2.816908341870E+03
 4.421160310889E+02 -7.428637928899E+02 3.535372024369E-01 -1.135528155204E+01 -1.405134771464E+03 -5.085584639633E-01 -1.623385495538E+00 -6.540160168859E-01 7.367013781936E-02 1.826241672950E-01 1.121174914360E+00 1.855667106995E-01 -8.103384195166E+00 -8.932635119148E-02 -2.573135283646E-01 6.111465967486E+00 2.755652719136E+03
 -7.380985626483E-01 2.848400550735E-01 -8.253843281555E+01 -3.349092121293E+00 -5.678253345288E-01 -7.940291677158E+01 7.608960779336E-02 2.334244441058E-02 4.906977241392E+00 1.267842040252E-01 -9.200372881755E-02 -8.683072265580E+00 2.587521526929E-01 -1.930687020038E-01 -4.148953608032E-01 5.453164474310E+00 -1.832785213109E+00 1.906595894922E+02
 -1.196766921093E+03 -4.085960185634E+02 3.651884937129E-01 1.133902894580E-01 -1.683388046906E+00 1.090100833092E-01 -1.239846119921E+03 4.442348900629E+02 6.677715671375E+00 -4.708918218629E+02 -1.279978108229E+01 8.031348937879E-02 1.126093519801E+01 2.371288028454E+00 4.374791063912E-01 -1.915365459397E+01 -3.175513892324E+01 -1.263394036733E-01 2.792969145360E+03
 -4.071275845564E+02 -6.907282061472E+02 -2.104954002575E+00 -9.066874290372E-01 1.215541914635E+00 1.624752853790E-01 4.503510957104E+02 -7.373486258398E+02 -7.391887895701E+00 -1.401421819388E+01 -1.454217575597E+03 -1.483939109106E+01 -2.575573931258E+01 -5.932322358668E+00 8.387556539775E-01 3.476068435779E+01 5.690556438258E+01 9.887428723423E-02 -2.416995987611E+01 2.763054220348E+03
 -1.833474962039E-01 -1.923135683496E+00 -8.037602783110E+01 9.332594306372E-02 -6.865711684480E-02 -8.550105332007E+00 7.275528232170E+00 -7.631961080592E+00 -8.486150109888E+01 -2.652042814653E-01 -1.475019580144E+01 -8.390248251280E+01 1.466969085840E-01 1.441483732997E-02 -1.151214780981E+00 -7.794638283352E-02 -5.272896197348E-02 8.319075779341E+00 -7.434727238744E+00 2.403952109726E+01 1.922812173662E+02
 1.762954924600E+00 -1.992381036524E-02 -1.105718710173E-01 -1.221700899278E+03 -4.212389350479E+02 -1.664993206696E+01 -2.636115330145E+00 -2.482415410510E-01 -4.115245435285E-01 -1.201335727259E+03 4.493470288203E+02 -3.368674038466E-01 -2.322845986563E+01 -7.394536017429E+00 6.574672789060E-02 3.612375197830E+01 -2.003937776242E+00 5.444630941154E-01 4.145941917325E+01 -2.016098179384E+00 1.958658680764E-01 2.780710402830E+03
 5.353489249567E-01 -7.907940314202E-01 -1.926666003374E-01 -4.272738122510E+02 -7.004435870070E+02 -9.660677209334E+00 -6.479647427322E+00 -2.289605738361E+00 -4.852047671773E-01 4.497201186650E+02 -7.363924912087E+02 -6.283919786312E+00 -5.075056093088E+01 -1.135603541878E+01 1.054244638296E+00 -6.711175135089E+01 1.819949267572E-01 -9.293140890082E-01 7.049151482297E+01 -4.419317441499E+00 4.683907160693E-01 -7.463342295304E+00 2.794923820934E+03
 -2.242054226392E-02 1.071974262925E-01 -9.292843739306E+00 -1.625446996728E+01 -9.279921234637E+00 -8.339700341846E+01 1.156663231523E-01 -4.497366493662E-01 4.150483904376E+00 -9.457991042414E-01 -6.672218590602E+00 -8.234761474882E+01 5.446683158426E+00 2.579325587008E+00 4.919443435606E+00 7.609085201822E-01 -5.574388645686E-02 8.537388986524E+00 5.943174193989E-01 2.305122482457E-01 8.369907715916E+00 1.883668557823E+01 3.417523091687E+01 2.007848654544E+02
 -4.845208199914E-01 -9.051398578217E-01 3.435147244862E-01 4.278092170366E-01 -6.716448824694E+00 6.744864762631E-01 -1.239986114542E+03 -4.360374459263E+02 -1.741951565700E+00 -1.087013859609E+00 -1.377531739528E+01 6.513767937265E-01 -4.582955506971E+02 -2.385941086070E+01 -3.459050508225E+00 2.596936938721E-02 3.392742668611E+00 -6.154011331763E-02 -2.544410410544E+01 -2.868765809251E+01 -8.921002989078E-01 7.395592767806E+00 1.788313506215E+01 -1.123504900180E+00 2.579061233050E+03
 -4.907366491872E-01 -6.960636822755E-01 2.843774858688E-01 8.586763482277E-01 -5.541335248223E+00 3.768403660424E-01 -4.482058939783E+02 -7.626155685510E+02 -6.146323397596E+00 -8.240857281248E-01 -1.015327559254E+01 7.333507002046E-01 4.451576761055E+01 -1.800193110494E+03 -2.684497415267E+01 -3.899905955251E-01 2.725346017650E+00 -9.703515310947E-03 3.322564431316E+01 6.810920047905E+01 9.531374821098E-02 5.545452228919E+00 1.423373716166E+01 -2.375330664431E-01 1.694161083780E+02 3.003393212097E+03
 -5.999218904477E-03 -4.002566956987E-02 3.921996190764E+00 6.259881400390E-01 -4.129904035556E-02 -2.231939829801E+00 -3.370372298703E+00 -8.109785484468E+00 -7.463762742174E+01 -1.134552629619E+00 1.979414680373E-01 -8.710957419502E+00 2.803918348319E+00 -2.063661971673E+01 -9.608148840468E+01 -5.819087571505E-02 -8.091532846832E-02 -1.257844757370E-01 1.078718949808E-01 5.883905652902E-01 8.481516174659E+00 6.709779280275E-01 4.869822955456E-01 1.835055687499E+00 -5.139649093686E-01 3.620512711040E+01 1.600736071765E+02
 -1.028364029066E+00 -1.694217662751E+00 2.601412714256E-01 1.160746592561E+00 -1.222106734774E+01 -1.136657688306E+00 1.916773973206E+01 9.406834539713E+00 2.400482796164E-01 -1.236870777911E+03 -4.562516089455E+02 -6.756359811573E+00 -1.126744453867E+03 4.998050385235E+02 4.635283715286E+00 -1.569959999270E-01 5.731513422706E+00 -2.738974043964E-01 3.312382763119E+01 1.258924124799E+01 -6.897431298344E-01 -7.921893254330E+00 -4.795485522855E+00 6.611172274684E-01 3.340253640811E+00 -4.313193913449E+01 3.452603313098E-01 2.779810064211E+03
 5.364182119393E-01 1.097452867001E+00 -2.151579561071E-01 6.641650328376E-02 1.027190966664E+01 -2.345289231606E-01 -1.720406869810E+01 -4.689851635745E+00 -4.357590223471E-01 -4.276104488301E+02 -7.081713115985E+02 -8.387547537449E+00 3.343933278017E+02 -7.908073302783E+02 -5.942832168075E+00 -7.451496555381E-01 -5.041647428599E+00 3.328575799543E-01 -6.237549720399E+01 -1.159119748161E+01 -1.630925841334E-01 2.488913244797E+01 3.222606728155E+01 2.093124483550E+00 1.286441309199E+02 3.206882218173E+01 -1.390105496110E-01 4.095020408099E+01 2.808599278021E+03
 4.564241349387E-02 -4.451181419289E-02 3.583430325111E+00 3.252075080062E-01 1.142623459713E-01 2.721116107406E+00 -1.217683398749E-02 -5.143380794960E-01 -6.361495519917E+00 -7.324660941610E+00 -7.687541307021E+00 -8.240366869778E+01 5.209412370667E+00 -7.052741341378E+00 -1.052879460668E+02 -2.179691495380E-02 -3.975508708129E-02 -5.343489032230E-02 -8.485433672352E-01 -4.842029465821E-01 7.457227420386E+00 4.639630488831E-01 -5.701851491628E-02 1.047337333781E+01 1.784496567038E+00 4.819045163246E-01 1.612110345389E+01 3.653612630146E+00 3.594081297042E+01 2.018968481737E+02
 -5.524582966275E-02 -1.036400174856E-01 -1.748435911105E-01 -6.589370026443E-02 -7.108324045804E-01 -1.160755404167E+00 1.182525835093E+00 5.859933938440E-01 -1.093580366732E+00 3.750197329779E-01 -9.908156975458E-01 -6.788960566391E-01 4.655875843446E+00 -7.821519791093E-01 -3.078584380987E-01 -1.151676831637E-02 3.794899506607E-01 -2.127778701576E-01 -2.839979158616E-01 3.375752137653E-01 1.193641719871E-01 4.325968233524E-01 9.652378357552E-01 5.794500456544E-01 -2.071596781979E+00 -1.590727628462E+00 1.458201031534E+00 -2.991508910709E+00 3.209048874235E+00 1.042290403897E+00 2.855813835915E+03
 -1.494613973414E-02 -1.061650844355E-01 4.506591477768E-02 8.783125715453E-02 -2.069534512617E-01 1.058404399383E-02 9.839026949014E-02 -6.255334660493E-02 -3.909779846185E-02 -1.649696560832E-01 -1.875734082400E-01 -4.550175402911E-03 1.450227667584E+00 8.759327245626E-01 1.440878169885E-01 1.454423330752E-02 1.704911073151E-01 -6.462222739512E-03 -3.834403127223E-02 2.114441294237E-01 3.107710189598E-02 6.687075827742E-02 1.938287762311E-01 -2.525820650098E-01 -4.023078673387E-01 -3.260430674121E-01 -1.131524258409E-01 -6.150127621115E-01 6.581118922473E-01 -1.179471657998E-01 -2.548620245919E+01 2.691951702669E+03
 7.039812325930E-02 4.845115158957E-02 2.929891768430E-01 -2.099670893173E-01 2.344302228354E-01 1.473106033881E+00 -4.329173724980E-01 8.779703684148E-02 4.177196878130E-01 4.152919563790E-01 7.966251199915E-01 4.072935606572E-02 -4.306263765473E+00 -1.410512531418E+00 9.421497095682E-01 -2.420052170853E-01 8.663209467802E-02 4.688237743508E+00 1.526272999702E-01 -3.339770732987E-01 4.506118742207E-01 -4.460244355674E-01 -6.552832790163E-01 -1.874026129663E+00 1.642839724582E+00 1.011589587454E+00 -1.568955234367E+00 8.307347033171E-01 -1.780710380757E+00 -1.318602526752E+00 1.671199010405E+02 -1.808316650628E+02 2.177902136145E+02
 -4.265231486783E-02 -1.105639809220E-02 -6.025629452424E-02 1.096681577040E-01 -3.818909334594E-01 -2.586497546113E-01 8.289632596008E-01 3.580573185542E-01 -1.950029328268E-01 -7.801669332206E-03 -8.807131251642E-01 -1.287531733129E-01 4.523099234016E+00 2.271463477672E-01 -8.643742289464E-01 -3.778299478168E-02 1.043742732283E-01 -8.465749887312E-02 -2.633914446859E-01 4.273501367663E-01 1.196001011253E-02 5.720379353592E-01 1.141071523200E+00 -4.183826334195E-03 -2.005719177694E+00 -1.675159790667E+00 4.320150020947E-01 -3.399462465567E+00 2.685288751807E+00 4.552148698243E-01 4.743691431724E+01 8.020679025878E+01 1.773068489361E+00 2.709673048993E+03
 -2.594417593034E-02 -2.937073303488E-02 6.580298765286E-02 -6.154308905779E-03 -3.935986828164E-02 3.577287333709E-01 7.298817663478E-02 -3.153018850448E-02 3.199621591042E-01 -1.870823040334E-01 -2.604721200535E-01 2.032133596020E-01 1.719285958059E+00 8.530812081765E-01 -4.181895045352E-02 3.024342223616E-02 5.441874670071E-02 5.078591896943E-02 -4.957908335279E-02 2.114354873708E-01 -3.179024596292E-02 1.579957666861E-01 4.194667200104E-01 -2.394674096223E-01 -5.260305985561E-01 -4.807309009458E-01 -4.200783183667E-01 -1.018921311901E+00 7.085401110214E-01 -2.486783775431E-01 -9.968367073920E-01 -1.429767249600E+00 3.803246684314E-01 2.539354220296E+02 2.939638689771E+03
 1.506443826412E-02 2.550071188357E-02 3.397695590492E-02 2.864539104242E-02 -1.431802228350E-01 1.616680842146E-01 2.678285955350E-01 1.371134179460E-01 1.497604167906E-01 8.956211920218E-02 -2.620198678028E-01 8.361131168286E-02 1.260220599268E+00 -1.128315015292E-01 3.865636996508E-01 -4.926769908973E-02 7.843347734609E-04 2.550751465179E-02 -1.072496939667E-01 1.472589969003E-01 -2.986416725757E-02 9.215790564073E-02 3.323409055159E-01 5.957986460738E-02 -6.404793623133E-01 -4.727644517686E-01 -2.059565445159E-01 -1.098554574096E+00 8.966904219646E-01 -1.761396750524E-01 3.074588569374E+00 8.623522166297E+00 1.281071856964E+01 2.083322142545E+02 -4.792990925343E+01 1.665207994637E+02
 -2.043325512232E+01 -3.419557680685E+01 4.775058725471E-02 3.884548152853E+01 -1.133518884867E+00 -8.107188574419E-01 9.545749235448E-01 3.017766871672E-01 -4.990568166454E-01 1.276346593656E-01 -9.343433206914E-01 -2.925218110872E-01 4.579658380265E+00 5.711608688255E-01 -1.338065409923E-02 -1.259078779641E+03 -4.365778971413E+02 -2.008740709710E+00 -2.416749336463E-01 3.822823704500E-01 9.879684893357E-02 2.264456354065E-01 1.217224050645E+00 2.649244110318E-01 -1.736621426718E+00 -1.223761514105E+00 7.197600855722E-01 -2.689896422559E+00 2.937566358248E+00 5.030509362755E-01 -1.926934922193E+01 3.462604620793E+01 -1.211005045231E+00 -8.658351954691E-02 -3.914043890903E-02 -1.280834273429E-01 2.777439786681E+03
 3.632041239896E+01 6.041496242290E+01 6.422511674332E-02 -6.734978861749E+01 4.837672328501E-01 8.100288836852E-01 2.937472073707E-01 1.010931634272E-01 7.817459160198E-01 -1.439538713216E-01 -4.035731978509E-01 4.465556757120E-01 3.269719966412E+00 1.067773057582E+00 -1.605414702751E-01 -4.424997385248E+02 -7.234626682975E+02 3.814412657039E+00 -2.277125087441E-01 4.468611910112E-01 -8.027435217805E-02 3.122129102337E-01 3.226425538001E-01 -6.002242530973E-01 -7.931200277520E-01 -7.388127435547E-01 -9.303727969497E-01 -1.745592697813E+00 1.655152611341E+00 -5.988813615677E-01 -3.270116276370E+01 5.798211383561E+01 -8.272706824444E-01 -2.680781146001E-01 9.850388085086E-02 1.973981108231E-01 3.085807823925E+01 2.785431553093E+03
 4.554713309873E-02 9.942931554819E-02 9.969985905054E+00 -2.768467032433E-01 1.278197377807E-01 1.028726737286E+01 2.912390387306E-02 2.324349786780E-01 1.026020110857E+00 4.357110860311E-01 1.578893611428E-01 5.208225589869E-01 -1.332156432111E+00 -9.634245489522E-01 -8.388450799201E-01 -2.731680373349E+00 2.878767981276E+00 -8.285299170377E+01 -1.073100100091E-01 -1.714122400423E-03 4.616416949029E+00 -2.551887802759E-01 8.582280053061E-03 3.472485333899E+00 4.124089184432E-01 2.556193872293E-01 -1.115821085366E+00 -6.988340792708E-01 -4.128039623380E-03 -7.501576918764E-01 -1.116289055123E+00 5.607279668630E-01 8.639388039865E+00 -2.203998438335E-01 2.111604995002E-01 9.917987442716E-02 3.239061630351E+01 -3.491650123839E+01 1.917908546515E+02
 -2.436137961678E-02 7.442937897285E-02 9.797124821820E-02 -1.897778789817E+01 -3.071327790820E+01 -7.645442758427E-01 -2.457482047655E-01 -3.818535830143E-01 3.544393926954E-01 -7.953116419950E-01 -3.744102658009E-01 2.656968825070E-01 2.953199788447E+00 2.575639347106E+00 9.696782507217E-02 2.299063217701E-01 -1.625517963278E-01 2.409318938205E-01 -5.296189388647E-02 3.441437899573E-01 -8.276367436502E-02 3.791816054384E-01 8.078460530477E-01 -3.212138746290E-01 -5.657495747767E-01 -4.075834835539E-01 -5.739614702843E-01 -1.007748258106E+00 6.519065143306E-01 -3.849031363435E-01 3.850708304541E+01 -6.905936819387E+01 2.551452579169E+00 -2.332385893069E+01 4.060528229803E+01 -2.340342351203E+00 3.874803569363E+01 6.510563112206E+01 -4.989207901098E-01 2.800467267573E+03
 -1.214132629087E-01 6.404188493638E-03 -7.026743201835E-03 3.424847159218E+01 5.628700640177E+01 1.944464218550E+00 1.234928989865E-01 -1.306805805523E-01 3.171191557665E-01 -2.758453407454E-01 -3.717674467681E-01 2.370649428080E-01 1.408175623763E+00 1.035116497729E+00 -1.302914217221E+00 -7.543405614143E-02 -1.350279489958E-01 4.590378433797E-03 -1.165458756584E-01 1.796193003120E-01 -4.236240231606E-02 2.687924164381E-01 6.353933402014E-01 -4.432535495059E-01 -4.129660278265E-01 -1.824533148988E-01 -2.255364029739E-02 -7.351701196979E-01 7.847228003793E-01 9.278200396404E-02 -3.224997142404E-01 5.911853859579E-01 6.886265608886E-01 -4.242536080676E+01 7.384275380135E+01 -3.281231896532E+00 -5.354179887775E-01 -5.658905282821E-01 1.876169997215E-01 -7.047052322439E+01 2.736381227994E+03
 -3.068526813101E-01 6.415601941720E-03 -5.184214741624E-01 1.726858691266E-01 -1.478779103430E-03 4.703182665030E+00 2.590600234338E-01 -1.238331893420E-01 -2.047649667444E+00 -6.849045390297E-01 -7.903827220929E-01 -9.671386624551E-01 5.372639353420E+00 2.335810586505E+00 1.218817125199E+00 5.409249417750E-01 -6.200142279357E-02 -8.943640076359E+00 -1.501073615283E-01 4.199337785364E-02 -3.291466675047E-01 2.844933539696E-01 4.691748937057E-01 7.195035266164E+00 -1.595241333045E+00 -1.137563394816E+00 2.855175256610E+00 4.268879876088E-01 1.414255296513E+00 2.009849880567E+00 2.479500409630E+00 -2.096137636171E+00 8.713613579160E+00 -2.043781087427E+00 2.043984585817E+00 1.241614707340E+01 1.319178816754E+00 -7.941944908425E-02 6.499845940213E+00 1.406204244800E+02 -5.878058916947E+01 1.984562212196E+02
 3.509181349155E-02 1.057823692141E-01 3.279126575996E-01 -9.703821219507E-02 1.130509011687E+00 1.781514415282E+00 -2.176578284223E+00 -1.041959976879E+00 1.792980240077E+00 -5.725424708539E-01 1.878149774077E+00 1.163529581191E+00 -9.110393094132E+00 1.161722738625E+00 -3.399915377098E-01 6.499478837553E-02 -4.629381679164E-01 3.218353405759E-01 6.218786549946E-01 -7.503852391376E-01 -2.224398097540E-01 -9.347410806322E-01 -1.883307307880E+00 -9.981496080016E-01 3.940977079327E+00 2.965198760520E+00 -2.186524341267E+00 5.855719788365E+00 -6.155623317700E+00 -1.523273838613E+00 -1.299879484417E+03 4.571207658220E+02 -1.248048040648E+02 -5.091954160147E+02 -1.826825810147E+01 -4.407605595890E+01 -1.795870926748E-01 8.146530474133E-01 9.349806747835E-01 9.465998112134E-02 1.598378645191E-01 -1.597238470309E+00 2.544146234506E+03
 3.199419378670E-02 1.053017072186E-02 -5.934177272547E-02 -9.970918864115E-02 -3.300454975346E-01 -1.571904894195E-01 9.491204368866E-01 6.139101738409E-01 -2.857712196205E-01 5.964006468635E-01 -6.131420562977E-01 -2.822833646719E-01 2.485251403579E+00 -1.750174676723E+00 1.185142348116E-01 -3.340707218998E-02 1.217750137610E-01 -9.823559013353E-02 -2.843947490311E-01 2.188873739659E-01 1.140618456372E-01 2.783533675887E-01 5.924077776103E-01 1.365145339673E-01 -1.271058320610E+00 -8.726374364086E-01 4.108427772620E-01 -2.468269095442E+00 2.419744406808E+00 2.472072702040E-01 4.906559433100E+02 -7.600107351915E+02 6.971278275916E+01 -4.925038898186E+01 -1.650503908030E+03 3.884370013229E+01 -2.738644447031E-01 -1.131707227559E-01 2.192174181725E-01 1.357929977840E-01 -5.001656627082E-02 -3.065581385922E-01 -1.301131345044E+02 2.796875038929E+03
 -1.499949138836E-01 -1.612581121396E-03 -4.033135092936E-01 6.334944034663E-01 -8.230432754548E-02 -2.465740129213E+00 -3.560821369880E-01 -5.490861163413E-01 -1.974524659332E+00 -1.019756025211E+00 -1.946936104992E-01 -9.711199264145E-01 1.550992805358E+00 2.687164252540E+00 2.898012201698E-01 -2.656345758077E-02 -1.579634415947E-01 -2.584209759766E-01 1.332149014965E-01 -1.618957432893E-01 -6.794336496197E-02 4.093879801742E-01 1.192567147887E-01 1.567487573512E+00 -5.959500202110E-01 -6.469228041069E-01 2.248390950997E+00 1.537580344805E+00 -1.004248015217E+00 1.704553486874E+00 -1.283635460001E+02 6.813835556763E+01 -1.039199874390E+02 -4.372558943747E+01 3.710454971103E+01 -8.565060696580E+01 8.361097136183E-01 -1.126441891115E+00 3.279239851222E+00 -2.168056618623E-01 -4.606082217980E-01 -7.637149598239E+00 2.873299352580E+02 -4.174739280147E+01 2.882457149190E+02
 5.383966118751E-02 -2.611316128994E-02 2.598547227316E-02 -3.074147370471E-01 -8.008037938052E-02 7.918700415596E-01 -8.061112611005E-01 -3.308445302701E-01 5.325411267948E-01 -7.134126239794E-02 9.795981136811E-01 3.112247805127E-01 -4.045316299273E+00 1.538870076970E-01 -6.324438697731E-02 -1.957089972371E+01 3.484852815945E+01 -1.149706391591E+00 2.279991771693E-01 -2.455622652643E-01 -2.862485336233E-02 -5.283306428805E-01 -1.176704505494E+00 -4.797004495953E-01 1.603577653271E+00 1.272766391384E+00 -6.895935867094E-01 2.260265002771E+00 -2.453138430379E+00 -5.313110482640E-01 -1.241107872785E+03 -4.308358432546E+02 -3.685249488610E+01 6.703966266556E-02 2.993096353774E-02 6.722378648899E-01 -1.163402934220E+03 4.223158238976E+02 -2.751484616170E+01 -4.635723035492E+02 -1.831537270296E+01 -1.598342934915E+01 -2.087317442432E+01 -3.529415599387E+01 -4.391580802864E-01 2.759353830588E+03
 1.139800475935E-01 4.031570431433E-03 -5.247240936836E-02 -7.291971214979E-01 -1.805524524940E-03 -7.867737486940E-01 6.910113633417E-01 3.282918057926E-01 -6.158472711770E-01 6.139650034777E-02 -6.322712507099E-01 -3.734434509006E-01 3.175893006107E+00 -5.905018793261E-01 -1.963905951960E-01 -3.248272223602E+01 5.839898653336E+01 -1.807215405305E+00 -1.163679412652E-01 2.471911055991E-01 -3.291895308454E-02 5.204518032721E-01 6.385110276306E-01 7.274758227102E-01 -1.624137764753E+00 -1.313263782642E+00 9.305025946319E-01 -2.207424304715E+00 1.811540942503E+00 7.745294626823E-01 -4.432074720270E+02 -7.186928906232E+02 7.177286490422E+00 1.315671882398E-01 -1.600440963371E-01 -9.493969372533E-01 4.220639037419E+02 -7.115773628667E+02 1.754805877207E+01 -4.141368180272E+00 -1.457180494649E+03 3.291898514944E+01 3.743465394788E+01 6.371292679983E+01 -1.506638013517E-01 1.815611613837E+01 2.765677730321E+03
 2.124871541319E-02 -3.786849512343E-02 4.732726141228E+00 6.214283956201E-03 -1.728856653161E-01 -7.705649127886E+00 8.355381403365E-02 1.136508067412E-01 6.264309207702E-01 1.602528269469E-01 -1.003241690607E-01 3.182358784718E-01 3.190088128717E-01 -2.525667915941E-01 1.372282847377E+00 2.499816753635E-01 -6.271019892637E-01 8.760771277508E+00 -1.038283399762E-01 1.596081533538E-01 3.429687882306E-02 -2.472148644566E-02 2.594325627661E-01 -4.475296334896E-01 -2.258507056997E-01 -1.544261642911E-01 -1.168924904364E+00 -9.997559232935E-01 5.287449056532E-01 -9.846332992776E-01 -3.620198158447E+01 9.174192778544E+00 -8.426536456232E+01 6.043061879521E-01 1.779765655184E-01 -1.073636669969E+01 -3.006018744658E+01 1.974634183082E+01 -7.952052579640E+01 -1.556511130234E+01 2.943912167730E+01 -8.359233477903E+01 -4.210142782845E+00 -6.625661385221E+00 1.091802963135E+01 7.594789849125E+01 -5.297099621042E+01 1.930217044130E+02
 3.919137669656E-02 -3.702814735885E-02 -8.377166477654E-02 -1.558212124908E-02 -1.760501431668E-01 -7.090531055970E-01 2.761181708781E-01 2.713391506144E-01 -4.696036466594E-01 4.594823497167E-01 1.392036880333E-01 -3.092981679389E-01 -9.226592126702E-01 -1.304233871547E+00 4.112000958301E-01 -9.342213674081E-02 1.294368354190E-01 -6.362439892401E-02 2.139851147006E-02 -1.185632714706E-01 7.050487865949E-02 -2.353096434172E-01 -2.559513145031E-01 3.603068091732E-01 6.315230155659E-02 8.105644244766E-02 5.658011320094E-01 1.198065980243E-01 1.300541872628E-02 3.210992019273E-01 1.695498851259E-01 3.016024796672E-02 2.385164547328E-01 -1.429778628966E+03 -5.062929075969E+02 -9.750409825791E+01 1.628273911170E-01 -8.351963164455E-02 -5.842570868863E-01 -1.332482699588E+03 4.603978869363E+02 -8.257553402842E+01 4.964825166223E+01 -1.081334868381E+00 3.970929980897E+00 4.034157743228E+01 -1.747321790262E-01 1.739404115826E+00 3.049323638985E+03
 2.290207189465E-02 4.126753434102E-02 1.092711138226E-01 -5.646669945413E-02 5.482060989256E-01 6.151401557048E-01 -1.130754515854E+00 -5.133214598391E-01 2.296048152688E-01 -1.565090630091E-01 1.113245409702E+00 1.523008326552E-01 -5.646615398729E+00 2.797257682937E-02 1.506965676349E+00 3.164537224621E-02 -2.241946503229E-01 9.001540433574E-02 3.513896254069E-01 -5.369158798952E-01 2.380710180258E-02 -6.149566209817E-01 -1.292140612624E+00 -1.546643116470E-01 2.394259274402E+00 1.892155701849E+00 -7.817960802693E-01 3.987846016582E+00 -3.575531753914E+00 -7.299276541069E-01 -5.047711614227E-02 -1.339285439078E-01 -3.347845882538E-01 -5.062384727264E+02 -8.397448244070E+02 -2.495412759314E+01 5.997059389285E-02 2.810105601527E-01 4.340275208437E-01 4.480152888780E+02 -7.589573025228E+02 3.857646512840E+01 -8.704907036207E+01 1.823123332640E+00 -7.715311672278E+00 7.326542162227E+01 -5.158544399061E-01 4.713625428944E+00 3.903722102492E+01 2.549599951956E+03
 7.371878330845E-02 8.170231315517E-02 2.625984154792E-01 -3.647972753956E-01 1.642063057771E-01 6.635253734667E+00 -3.238233764852E-01 1.729636400247E-01 1.635871915587E+00 5.837066072990E-01 8.031205398649E-01 8.546689658388E-01 -4.350751788476E+00 -1.633768612239E+00 -2.976943901383E+00 -1.451746238644E-01 -9.173914390474E-02 1.677395149047E-01 1.388655918118E-01 -2.395297429070E-01 6.001380330585E-02 -5.618624567740E-01 -6.060935341684E-01 -1.816531528416E+00 1.462169400894E+00 9.421597269410E-01 -1.408592416390E+00 1.873312089152E-01 -1.431926668710E+00 -7.626828940315E-01 1.292587197821E-01 -1.921245826714E-01 -9.630623081449E+00 -9.614593755081E+01 -2.387077815718E+01 -7.546235533590E+01 -5.997950928948E-01 9.013663818366E-01 5.750866135971E+00 -8.469968801181E+01 4.078848435008E+01 -8.703762428421E+01 6.934212777248E+00 -2.394240267974E-01 1.246833706562E+01 5.366424564190E-01 -3.302838488245E-01 1.031321897385E+01 2.001126539185E+02 -3.575123436568E+01 1.674538877623E+02
 -4.239440123659E-03 -8.386650956914E-02 -1.428389809872E-01 -1.248608771730E+03 4.546434492070E+02 -2.207631487690E+01 -5.957942616355E-01 -3.800322649479E-01 -1.849407021198E-01 -9.044711997211E-02 6.035405078646E-01 -1.730200068295E-01 -4.646754132901E+00 -2.246818498470E-01 -7.491550765123E-02 3.998742048959E+01 -1.030155164351E+00 4.284369181100E-01 3.851032524168E-01 -3.375471458688E-01 1.348622709001E-01 -2.083241999116E+01 3.608084218248E+01 -4.662111043293E-01 1.478087386049E+00 1.262347466831E+00 1.481340732740E-01 2.731417393620E+00 -2.496531910373E+00 3.676937642333E-02 4.195351246970E-01 6.925862141256E-02 -1.851645768562E-01 8.292227948635E-02 6.067396958988E-02 -3.446469649805E-01 -4.751712588212E-01 -5.657654002938E-02 6.209565673369E-02 -1.120176218093E+03 -3.766903522146E+02 -4.111775302065E+01 -4.137325597713E-01 -3.817962249914E-02 2.473831328900E-01 3.479656807492E+01 3.748353995568E-01 1.434783970148E+00 -1.789584179030E+01 -3.288130664096E+01 -7.433025323643E-01 2.740690295809E+03
 2.511910695896E-01 2.410953487039E-01 -7.087547168382E-02 4.661346662140E+02 -7.524749168055E+02 3.262051625506E+00 -1.358022043039E+00 5.460137704583E-02 -5.209293394280E-01 1.464377369941E+00 2.585529699692E+00 -3.641040221246E-01 -1.487198552891E+01 -5.447458493207E+00 6.790290525108E-01 6.625928287146E+01 -1.637494809035E+00 1.110356488515E+00 6.144662065858E-01 -1.643501481816E+00 7.229545675293E-02 -3.527015612900E+01 5.681079045977E+01 5.247622797374E-03 4.384682387654E+00 3.302217158266E+00 5.199949005021E-01 7.479850168143E+00 -7.329348116809E+00 1.271798732570E-01 4.048005298751E-01 3.053737215866E-01 -3.542944552222E-01 1.309640585729E-01 3.053074616106E-02 2.368105844386E-01 4.949354478569E-01 6.746110741405E-01 -3.982972219499E-01 -3.785200978194E+02 -6.551864401687E+02 -1.351620794020E+01 -5.993279761502E-01 -6.621612158799E-02 6.071219632204E-01 -6.254309104698E+01 1.353292877465E-01 -3.121644337005E+00 3.276025045627E+01 5.899465836902E+01 -9.187240980061E-02 -3.061670370447E+01 2.812115888431E+03
 7.657734064352E-02 -1.659775658141E-01 4.566525065346E+00 -2.130503155203E+01 3.435700379302E+00 -8.433425299838E+01 -2.292393389883E-01 -1.588747965486E-01 -3.794775428363E-01 -1.455534291827E-01 1.952537009798E-01 4.444513249498E+00 -2.049480759193E+00 -4.419744450137E-01 -4.235323029942E-01 2.153870507040E-01 8.120009448904E-02 8.610432725954E+00 1.884663769984E-01 -1.025137424231E-01 5.647699881753E-02 -4.907280416948E-01 7.333608752008E-02 9.940680528612E+00 5.534616414268E-01 4.424770180871E-01 4.994309779917E-01 1.265089840337E+00 -1.123662780136E+00 3.785069560090E-01 -8.963380605897E-02 -3.446036756810E-02 3.988058397245E+00 3.087668378712E-02 -2.209802899233E-01 5.230334650084E+00 5.184235193956E-01 -7.544013121773E-02 -8.971739682588E+00 -4.142936054261E+01 -1.327968750203E+01 -8.113629194016E+01 -5.326129348836E-01 4.060344043172E-01 6.291411993998E-01 2.897417137127E+00 2.140689105360E-02 7.631225464664E+00 -2.686109964980E+00 -3.436133708372E+00 9.917867697896E+00 7.105868536251E+01 4.477274118388E+01 1.904325308501E+02