#BIOSYM hessian 1
@Type: Hessian Update
@Units
 distance: 	A
 energy: 	Kcal/Mol
#header
@natom 67

#label
C1      C2      C3      C4      C5      C6      C7      C8      C9      C10     C11     C12     C13     C14     C15     C16     C17     C18     C19     C20     C21     C22     C23     H24     C25     C26     C27     C28     C29     C30     C31     C32     C33     C34     C35     C36     C37     C38     C39     C40     C41     C42     C43     C44     C45     C46     C47     C48     C49     H50     H51     H52     H53     H54     H55     H56     H57     H58     H59     H60     H61     H62     O63     H64     H65     H66     H67

#element
C  C  C  C  C  C  C  C  C  C  C  C  C  C  C  C  C  C  C  C  C  C  C  H  C  C  C  C  C  C  C  C  C  C  C  C  C  C  C  C  C  C  C  C  C  C  C  C  C  H  H  H  H  H  H  H  H  H  H  H  H  H  O  H  H  H  H 

#matrix
201
 2.781473847230E+03
 -1.664599617010E+01 2.806239800356E+03
 0.000000000000E+00 0.000000000000E+00 0.000000000000E+00
 3.846722264892E+01 6.693510992644E+01 0.000000000000E+00 2.797543868645E+03
 1.797941540405E-01 -4.942266621796E-01 0.000000000000E+00 -2.548783620787E+01 2.768243814398E+03
 0.000000000000E+00 0.000000000000E+00 0.000000000000E+00 0.000000000000E+00 0.000000000000E+00 0.000000000000E+00
 -1.931249538853E+01 3.418684956514E+01 0.000000000000E+00 -2.105595304127E-01 7.277514391417E-02 0.000000000000E+00 2.798325055744E+03
 -3.288119566124E+01 5.902591187313E+01 0.000000000000E+00 2.515644902156E-01 -1.136909904851E-01 0.000000000000E+00 2.751270550620E+01 2.755048623328E+03
 0.000000000000E+00 0.000000000000E+00 0.000000000000E+00 0.000000000000E+00 0.000000000000E+00 0.000000000000E+00 0.000000000000E+00 0.000000000000E+00 0.000000000000E+00
 3.693900037226E+01 -6.660284610059E+01 0.000000000000E+00 -2.000168597646E+01 3.505011502232E+01 0.000000000000E+00 3.980085666567E+01 6.889980427297E+01 0.000000000000E+00 2.799608932603E+03
 -2.697784927226E-01 2.432811626406E-01 0.000000000000E+00 -3.301670285349E+01 5.914437911265E+01 0.000000000000E+00 -1.311438189885E-01 -2.704625055656E-01 0.000000000000E+00 -9.372717004395E-01 2.803227664689E+03
 0.000000000000E+00 0.000000000000E+00 0.000000000000E+00 0.000000000000E+00 0.000000000000E+00 0.000000000000E+00 0.000000000000E+00 0.000000000000E+00 0.000000000000E+00 0.000000000000E+00 0.000000000000E+00 0.000000000000E+00
 -1.050161675745E-01 3.539460167662E-02 0.000000000000E+00 -1.857318812153E-01 9.513540303478E-02 0.000000000000E+00 5.099699556804E+01 -8.321029894747E+01 0.000000000000E+00 -2.159336268639E+01 3.733066280830E+01 0.000000000000E+00 2.605441476270E+03
 1.614725989833E-01 -4.895613049233E-02 0.000000000000E+00 2.620395186605E-01 -9.774535973499E-02 0.000000000000E+00 -2.789853413625E-01 3.801896719224E-01 0.000000000000E+00 -3.516805709109E+01 6.123529801713E+01 0.000000000000E+00 -1.740198618351E+02 3.053430987365E+03
 0.000000000000E+00 0.000000000000E+00 0.000000000000E+00 0.000000000000E+00 0.000000000000E+00 0.000000000000E+00 0.000000000000E+00 0.000000000000E+00 0.000000000000E+00 0.000000000000E+00 0.000000000000E+00 0.000000000000E+00 0.000000000000E+00 0.000000000000E+00 0.000000000000E+00
 -1.218975822799E+03 4.416979123993E+02 0.000000000000E+00 -4.630839753255E+02 -6.973634686356E+00 0.000000000000E+00 2.097025610373E-01 -2.118670844286E-01 0.000000000000E+00 4.814449489711E-01 1.426564127977E-01 0.000000000000E+00 1.538157487101E-01 -2.250138065267E-01 0.000000000000E+00 2.818833909560E+03
 4.359726510351E+02 -7.348562267273E+02 0.000000000000E+00 -4.623343408498E+00 -1.430539635530E+03 0.000000000000E+00 2.439518193675E-02 2.429903096183E-02 0.000000000000E+00 -7.804409966473E-02 3.141326396326E-02 0.000000000000E+00 -3.404822340488E-02 1.176518631137E-02 0.000000000000E+00 2.659855013762E+00 2.772561217366E+03
 0.000000000000E+00 0.000000000000E+00 0.000000000000E+00 0.000000000000E+00 0.000000000000E+00 0.000000000000E+00 0.000000000000E+00 0.000000000000E+00 0.000000000000E+00 0.000000000000E+00 0.000000000000E+00 0.000000000000E+00 0.000000000000E+00 0.000000000000E+00 0.000000000000E+00 0.000000000000E+00 0.000000000000E+00 0.000000000000E+00
 -1.200799055776E+03 -4.129464993041E+02 0.000000000000E+00 7.589432468787E-01 -2.249045936648E-01 0.000000000000E+00 -1.237665975121E+03 4.409459482090E+02 0.000000000000E+00 -4.689798722872E+02 -3.521037786873E+00 0.000000000000E+00 1.177855347256E-01 -9.345955588675E-02 0.000000000000E+00 -1.981375259664E+01 -3.241274588543E+01 0.000000000000E+00 2.793395507628E+03
 -4.109317996478E+02 -6.938766036986E+02 0.000000000000E+00 2.002061519183E-01 -5.805862132616E-03 0.000000000000E+00 4.494151209579E+02 -7.325395335263E+02 0.000000000000E+00 -6.301402534133E+00 -1.457959429546E+03 0.000000000000E+00 5.804734981616E-02 1.102300528815E-04 0.000000000000E+00 3.411587052518E+01 5.824378133440E+01 0.000000000000E+00 -2.591579300489E+01 2.765474460447E+03
 0.000000000000E+00 0.000000000000E+00 0.000000000000E+00 0.000000000000E+00 0.000000000000E+00 0.000000000000E+00 0.000000000000E+00 0.000000000000E+00 0.000000000000E+00 0.000000000000E+00 0.000000000000E+00 0.000000000000E+00 0.000000000000E+00 0.000000000000E+00 0.000000000000E+00 0.000000000000E+00 0.000000000000E+00 0.000000000000E+00 0.000000000000E+00 0.000000000000E+00 0.000000000000E+00
 5.037171686751E-01 -1.026845484576E-01 0.000000000000E+00 -1.223275757810E+03 -4.203331337948E+02 0.000000000000E+00 6.161321643989E-02 -1.278917444114E-01 0.000000000000E+00 -1.216475035112E+03 4.368638439194E+02 0.000000000000E+00 9.964031901210E-02 -1.014172244910E-01 0.000000000000E+00 3.657415172218E+01 -1.715008523570E-01 0.000000000000E+00 3.958957095979E+01 -1.692112314143E-01 0.000000000000E+00 2.802942587850E+03
 -2.001461984900E-02 9.978730248926E-03 0.000000000000E+00 -4.231022601946E+02 -7.054354510120E+02 0.000000000000E+00 -1.163204907426E-02 1.007535479376E-02 0.000000000000E+00 4.396665835515E+02 -7.329434030171E+02 0.000000000000E+00 -1.052578564968E-02 1.585381281321E-02 0.000000000000E+00 -6.678454301192E+01 3.548359380774E-01 0.000000000000E+00 6.761620086614E+01 -2.606847431948E-01 0.000000000000E+00 1.094712685531E+00 2.797347209968E+03
 0.000000000000E+00 0.000000000000E+00 0.000000000000E+00 0.000000000000E+00 0.000000000000E+00 0.000000000000E+00 0.000000000000E+00 0.000000000000E+00 0.000000000000E+00 0.000000000000E+00 0.000000000000E+00 0.000000000000E+00 0.000000000000E+00 0.000000000000E+00 0.000000000000E+00 0.000000000000E+00 0.000000000000E+00 0.000000000000E+00 0.000000000000E+00 0.000000000000E+00 0.000000000000E+00 0.000000000000E+00 0.000000000000E+00 0.000000000000E+00
 1.040022971774E-01 -3.951993699513E-02 0.000000000000E+00 1.887431485910E-01 -4.436506072842E-02 0.000000000000E+00 -1.234389280799E+03 -4.459379525281E+02 0.000000000000E+00 7.093716003430E-02 2.463357017790E-02 0.000000000000E+00 -5.675293352955E+02 -3.772290061693E+00 0.000000000000E+00 -1.523499333937E-01 2.023683252866E-02 0.000000000000E+00 -2.160652657215E+01 -3.718447276265E+01 0.000000000000E+00 -7.464215331671E-02 1.395849564747E-03 0.000000000000E+00 2.599810447978E+03
 -6.497330923724E-02 9.879166986107E-04 0.000000000000E+00 -7.777859449338E-02 7.039334320766E-02 0.000000000000E+00 -4.609198432012E+02 -7.736584248260E+02 0.000000000000E+00 -1.437166651595E-02 4.551155735905E-02 0.000000000000E+00 -1.409317574768E+01 -1.818559834844E+03 0.000000000000E+00 7.815680361595E-02 2.076120384979E-02 0.000000000000E+00 3.509190651716E+01 6.058352102332E+01 0.000000000000E+00 2.676275899142E-02 -2.409956123192E-02 0.000000000000E+00 1.875518049736E+02 3.032328273062E+03
 0.000000000000E+00 0.000000000000E+00 0.000000000000E+00 0.000000000000E+00 0.000000000000E+00 0.000000000000E+00 0.000000000000E+00 0.000000000000E+00 0.000000000000E+00 0.000000000000E+00 0.000000000000E+00 0.000000000000E+00 0.000000000000E+00 0.000000000000E+00 0.000000000000E+00 0.000000000000E+00 0.000000000000E+00 0.000000000000E+00 0.000000000000E+00 0.000000000000E+00 0.000000000000E+00 0.000000000000E+00 0.000000000000E+00 0.000000000000E+00 0.000000000000E+00 0.000000000000E+00 0.000000000000E+00
 3.251072416893E-01 -1.216991101138E-01 0.000000000000E+00 5.834456070604E-01 -1.945480887843E-01 0.000000000000E+00 1.495808234155E-01 -1.017959345125E-01 0.000000000000E+00 -1.230409700317E+03 -4.351653410045E+02 0.000000000000E+00 -1.263818358204E+03 4.629053955144E+02 0.000000000000E+00 -4.731512597687E-01 1.137678121787E-01 0.000000000000E+00 3.902821079869E+01 -2.715930998519E-01 0.000000000000E+00 -2.048904827541E+01 -3.422802170759E+01 0.000000000000E+00 5.165591447273E+01 -1.814850962708E-01 0.000000000000E+00 2.852149392388E+03
 -3.067862966265E-02 2.853704643050E-02 0.000000000000E+00 -8.571590137701E-02 1.659936448385E-02 0.000000000000E+00 -2.483477580155E-03 2.833089622598E-02 0.000000000000E+00 -4.337087203033E+02 -7.310390185164E+02 0.000000000000E+00 4.528923222262E+02 -7.856525917099E+02 0.000000000000E+00 4.913278330687E-02 -6.934597354596E-03 0.000000000000E+00 -6.825647031989E+01 2.714947496751E-01 0.000000000000E+00 3.506702121413E+01 5.941121739917E+01 0.000000000000E+00 8.475747034472E+01 -4.651645295854E-01 0.000000000000E+00 -3.895712831659E+01 2.884878014028E+03
 0.000000000000E+00 0.000000000000E+00 0.000000000000E+00 0.000000000000E+00 0.000000000000E+00 0.000000000000E+00 0.000000000000E+00 0.000000000000E+00 0.000000000000E+00 0.000000000000E+00 0.000000000000E+00 0.000000000000E+00 0.000000000000E+00 0.000000000000E+00 0.000000000000E+00 0.000000000000E+00 0.000000000000E+00 0.000000000000E+00 0.000000000000E+00 0.000000000000E+00 0.000000000000E+00 0.000000000000E+00 0.000000000000E+00 0.000000000000E+00 0.000000000000E+00 0.000000000000E+00 0.000000000000E+00 0.000000000000E+00 0.000000000000E+00 0.000000000000E+00
 -1.741462868184E+00 5.324862043325E-01 0.000000000000E+00 -3.156933450294E+00 1.099561049942E+00 0.000000000000E+00 -4.358923658831E-01 6.033832280939E-01 0.000000000000E+00 -1.064214035759E+00 -2.679205290777E-01 0.000000000000E+00 -3.424737408083E-01 5.769818121769E-01 0.000000000000E+00 2.458151719986E+00 -2.633428464919E-01 0.000000000000E+00 1.456162423154E+00 4.098100008095E-01 0.000000000000E+00 1.429933047182E+00 -3.967951544521E-02 0.000000000000E+00 4.274937896295E-01 -1.863873636038E-01 0.000000000000E+00 1.200742598939E+00 -1.358533096517E-01 0.000000000000E+00 2.804619731336E+03
 -1.002095733667E+00 5.199273369265E-01 0.000000000000E+00 -1.439304971226E+00 1.466828916922E-01 0.000000000000E+00 -2.678907425479E-01 3.415818593422E-01 0.000000000000E+00 -4.926039867558E-01 -1.427639108555E-01 0.000000000000E+00 -2.162680390813E-01 3.123987259599E-01 0.000000000000E+00 1.195422754608E+00 -5.572830936795E-01 0.000000000000E+00 6.724762978454E-01 6.501472065746E-02 0.000000000000E+00 5.608783075102E-01 1.241615061811E-01 0.000000000000E+00 1.710826930484E-01 -2.009808784116E-01 0.000000000000E+00 5.359054580010E-01 -6.634038155976E-02 0.000000000000E+00 -3.529431791160E+00 2.788786759801E+03
 0.000000000000E+00 0.000000000000E+00 0.000000000000E+00 0.000000000000E+00 0.000000000000E+00 0.000000000000E+00 0.000000000000E+00 0.000000000000E+00 0.000000000000E+00 0.000000000000E+00 0.000000000000E+00 0.000000000000E+00 0.000000000000E+00 0.000000000000E+00 0.000000000000E+00 0.000000000000E+00 0.000000000000E+00 0.000000000000E+00 0.000000000000E+00 0.000000000000E+00 0.000000000000E+00 0.000000000000E+00 0.000000000000E+00 0.000000000000E+00 0.000000000000E+00 0.000000000000E+00 0.000000000000E+00 0.000000000000E+00 0.000000000000E+00 0.000000000000E+00 0.000000000000E+00 0.000000000000E+00 0.000000000000E+00
 -8.379818202795E+00 2.772320442705E+00 0.000000000000E+00 -1.192470986619E+01 4.066328614457E+00 0.000000000000E+00 -1.960059024077E+00 2.281606727396E+00 0.000000000000E+00 -3.933506164335E+00 -9.360399695642E-01 0.000000000000E+00 -1.887411549346E+00 2.157862496931E+00 0.000000000000E+00 1.175567455465E+01 -2.567232235243E+00 0.000000000000E+00 5.734264558438E+00 1.413349164618E+00 0.000000000000E+00 5.204573993345E+00 -1.814994706722E-01 0.000000000000E+00 9.223795069512E-01 -1.102537047437E+00 0.000000000000E+00 4.365716327852E+00 -4.029613902136E-01 0.000000000000E+00 2.256037588233E+01 6.306060573119E+01 0.000000000000E+00 2.577519959881E+03
 9.080098056232E+00 -3.444041807178E+00 0.000000000000E+00 1.532381895474E+01 -3.534881635435E+00 0.000000000000E+00 2.320229989269E+00 -2.652068144900E+00 0.000000000000E+00 5.257582946965E+00 1.346465702056E+00 0.000000000000E+00 2.265855243380E+00 -2.648482409140E+00 0.000000000000E+00 -1.316970791611E+01 2.620765361635E+00 0.000000000000E+00 -7.046664587198E+00 -1.578973679141E+00 0.000000000000E+00 -6.602386827042E+00 -2.176898520254E-01 0.000000000000E+00 -1.470208127749E+00 1.273703593077E+00 0.000000000000E+00 -5.574556112803E+00 5.164400648411E-01 0.000000000000E+00 3.045720416779E+01 7.994794689350E+00 0.000000000000E+00 3.962086617608E+02 2.638116898217E+03
 0.000000000000E+00 0.000000000000E+00 0.000000000000E+00 0.000000000000E+00 0.000000000000E+00 0.000000000000E+00 0.000000000000E+00 0.000000000000E+00 0.000000000000E+00 0.000000000000E+00 0.000000000000E+00 0.000000000000E+00 0.000000000000E+00 0.000000000000E+00 0.000000000000E+00 0.000000000000E+00 0.000000000000E+00 0.000000000000E+00 0.000000000000E+00 0.000000000000E+00 0.000000000000E+00 0.000000000000E+00 0.000000000000E+00 0.000000000000E+00 0.000000000000E+00 0.000000000000E+00 0.000000000000E+00 0.000000000000E+00 0.000000000000E+00 0.000000000000E+00 0.000000000000E+00 0.000000000000E+00 0.000000000000E+00 0.000000000000E+00 0.000000000000E+00 0.000000000000E+00
 -2.064127349632E+01 -3.402077715791E+01 0.000000000000E+00 3.762138148794E+01 9.324564679013E-02 0.000000000000E+00 -1.360602838150E-01 1.477847518947E-01 0.000000000000E+00 -2.392722676869E-01 -7.052309686221E-02 0.000000000000E+00 -7.082963007397E-02 1.394544570248E-01 0.000000000000E+00 -1.254362329440E+03 -4.356739837362E+02 0.000000000000E+00 3.443506288206E-01 1.111803201152E-01 0.000000000000E+00 3.424964246238E-01 -1.695623977667E-02 0.000000000000E+00 8.960197581919E-02 -5.740036927023E-02 0.000000000000E+00 2.618707543157E-01 -3.166731193884E-02 0.000000000000E+00 -2.050987353439E+01 3.300706602956E+01 0.000000000000E+00 -9.290701351812E+00 8.561411783924E+00 0.000000000000E+00 2.790926497690E+03
 3.521277130376E+01 6.086055806497E+01 0.000000000000E+00 -6.884971262318E+01 3.221836696851E-01 0.000000000000E+00 -1.405310647958E-01 1.474253563215E-01 0.000000000000E+00 -1.665306842041E-01 -4.920168421018E-02 0.000000000000E+00 -8.208322257482E-02 1.420744153991E-01 0.000000000000E+00 -4.383295479026E+02 -7.243398475356E+02 0.000000000000E+00 2.534874677111E-01 -2.388172468300E-02 0.000000000000E+00 2.149237762207E-01 6.381433178500E-02 0.000000000000E+00 6.321204450597E-02 -1.136758993480E-01 0.000000000000E+00 1.782013590305E-01 -3.036469544226E-02 0.000000000000E+00 -3.428053688704E+01 5.769111104947E+01 0.000000000000E+00 -3.223995014437E+00 3.707085938265E+00 0.000000000000E+00 1.899019986261E+01 2.797389249034E+03
 0.000000000000E+00 0.000000000000E+00 0.000000000000E+00 0.000000000000E+00 0.000000000000E+00 0.000000000000E+00 0.000000000000E+00 0.000000000000E+00 0.000000000000E+00 0.000000000000E+00 0.000000000000E+00 0.000000000000E+00 0.000000000000E+00 0.000000000000E+00 0.000000000000E+00 0.000000000000E+00 0.000000000000E+00 0.000000000000E+00 0.000000000000E+00 0.000000000000E+00 0.000000000000E+00 0.000000000000E+00 0.000000000000E+00 0.000000000000E+00 0.000000000000E+00 0.000000000000E+00 0.000000000000E+00 0.000000000000E+00 0.000000000000E+00 0.000000000000E+00 0.000000000000E+00 0.000000000000E+00 0.000000000000E+00 0.000000000000E+00 0.000000000000E+00 0.000000000000E+00 0.000000000000E+00 0.000000000000E+00 0.000000000000E+00
 -4.158218416724E+00 1.313242323906E+00 0.000000000000E+00 -2.595968027581E+01 -2.918611530049E+01 0.000000000000E+00 -9.974287037860E-01 1.196306613384E+00 0.000000000000E+00 -2.379986977936E+00 -4.965195478313E-01 0.000000000000E+00 -8.831854754934E-01 1.186324616882E+00 0.000000000000E+00 5.914392220971E+00 -6.699185543317E-01 0.000000000000E+00 3.301060494798E+00 8.578692728779E-01 0.000000000000E+00 3.163414965644E+00 -2.210689525550E-01 0.000000000000E+00 7.903124494740E-01 -4.430433332405E-01 0.000000000000E+00 2.638777325250E+00 -2.534663426651E-01 0.000000000000E+00 2.452334814407E+01 -7.599495809520E+01 0.000000000000E+00 -8.393022084820E+01 1.095926699970E+02 0.000000000000E+00 3.665157735806E+01 6.460422094394E+01 0.000000000000E+00 2.742585339830E+03
 4.802265473509E+00 -1.795813016964E+00 0.000000000000E+00 4.201122281256E+01 5.451153214510E+01 0.000000000000E+00 1.223426390611E+00 -1.457946203939E+00 0.000000000000E+00 2.778043402852E+00 7.128654349505E-01 0.000000000000E+00 1.150085982285E+00 -1.413442438533E+00 0.000000000000E+00 -6.733170682200E+00 1.357704682068E+00 0.000000000000E+00 -3.677421011957E+00 -8.416597469007E-01 0.000000000000E+00 -3.394259138208E+00 -1.603354044336E-01 0.000000000000E+00 -8.227427277224E-01 7.256579742483E-01 0.000000000000E+00 -2.948639402260E+00 2.811580524575E-01 0.000000000000E+00 1.763336403546E+01 5.998631333584E+00 0.000000000000E+00 2.551057784162E+01 5.862124990061E+00 0.000000000000E+00 4.451680968583E+00 2.179371502021E+00 0.000000000000E+00 4.125519701268E+00 2.727328689083E+03
 0.000000000000E+00 0.000000000000E+00 0.000000000000E+00 0.000000000000E+00 0.000000000000E+00 0.000000000000E+00 0.000000000000E+00 0.000000000000E+00 0.000000000000E+00 0.000000000000E+00 0.000000000000E+00 0.000000000000E+00 0.000000000000E+00 0.000000000000E+00 0.000000000000E+00 0.000000000000E+00 0.000000000000E+00 0.000000000000E+00 0.000000000000E+00 0.000000000000E+00 0.000000000000E+00 0.000000000000E+00 0.000000000000E+00 0.000000000000E+00 0.000000000000E+00 0.000000000000E+00 0.000000000000E+00 0.000000000000E+00 0.000000000000E+00 0.000000000000E+00 0.000000000000E+00 0.000000000000E+00 0.000000000000E+00 0.000000000000E+00 0.000000000000E+00 0.000000000000E+00 0.000000000000E+00 0.000000000000E+00 0.000000000000E+00 0.000000000000E+00 0.000000000000E+00 0.000000000000E+00
 2.128266882368E+00 -7.349592030194E-01 0.000000000000E+00 3.802533366287E+00 -3.220127532694E-01 0.000000000000E+00 5.637674880307E-01 -5.779104687884E-01 0.000000000000E+00 1.307504027255E+00 4.053142708944E-01 0.000000000000E+00 5.948918457122E-01 -5.700993747726E-01 0.000000000000E+00 -3.080760194922E+00 4.709001940053E-01 0.000000000000E+00 -1.596609213130E+00 -4.147276644736E-01 0.000000000000E+00 -1.424999510601E+00 -2.533976825698E-01 0.000000000000E+00 -2.773745356417E-01 3.698990388683E-01 0.000000000000E+00 -1.275246503154E+00 8.835089655298E-02 0.000000000000E+00 -1.227918680100E+03 4.355307833066E+02 0.000000000000E+00 -4.528867079625E+02 -2.195571533226E+01 0.000000000000E+00 2.094920022548E+00 7.074344203832E-01 0.000000000000E+00 1.636583772350E+01 -1.332883387841E+01 0.000000000000E+00 2.826357704237E+03
 -6.517516970952E+00 1.901231918669E+00 0.000000000000E+00 -1.080694599103E+01 4.642576712617E+00 0.000000000000E+00 -1.580949604209E+00 1.955391386075E+00 0.000000000000E+00 -3.764744933686E+00 -7.745307355420E-01 0.000000000000E+00 -1.273954885767E+00 1.896224478058E+00 0.000000000000E+00 9.283914848873E+00 -1.203832817224E+00 0.000000000000E+00 5.279126304959E+00 1.450609651811E+00 0.000000000000E+00 5.011710378520E+00 -4.546647457420E-01 0.000000000000E+00 1.362740557247E+00 -5.882287848642E-01 0.000000000000E+00 4.226964060579E+00 -4.475148935405E-01 0.000000000000E+00 4.123250233246E+02 -7.386311352035E+02 0.000000000000E+00 -1.359200008177E+02 -1.415445760171E+03 0.000000000000E+00 -5.219235414722E+00 -5.322195395596E+00 0.000000000000E+00 -5.028647719317E+01 6.204422398459E+01 0.000000000000E+00 7.440741446703E+01 2.815542194410E+03
 0.000000000000E+00 0.000000000000E+00 0.000000000000E+00 0.000000000000E+00 0.000000000000E+00 0.000000000000E+00 0.000000000000E+00 0.000000000000E+00 0.000000000000E+00 0.000000000000E+00 0.000000000000E+00 0.000000000000E+00 0.000000000000E+00 0.000000000000E+00 0.000000000000E+00 0.000000000000E+00 0.000000000000E+00 0.000000000000E+00 0.000000000000E+00 0.000000000000E+00 0.000000000000E+00 0.000000000000E+00 0.000000000000E+00 0.000000000000E+00 0.000000000000E+00 0.000000000000E+00 0.000000000000E+00 0.000000000000E+00 0.000000000000E+00 0.000000000000E+00 0.000000000000E+00 0.000000000000E+00 0.000000000000E+00 0.000000000000E+00 0.000000000000E+00 0.000000000000E+00 0.000000000000E+00 0.000000000000E+00 0.000000000000E+00 0.000000000000E+00 0.000000000000E+00 0.000000000000E+00 0.000000000000E+00 0.000000000000E+00 0.000000000000E+00
 5.289768661207E-01 -6.242880895063E-02 0.000000000000E+00 9.514812948538E-01 -3.559909060509E-01 0.000000000000E+00 1.505817432232E-01 -2.096803233408E-01 0.000000000000E+00 2.706940727052E-01 4.624668712714E-02 0.000000000000E+00 5.077822727791E-02 -1.964071100561E-01 0.000000000000E+00 -2.038637847003E+01 3.490042625676E+01 0.000000000000E+00 -4.193579930926E-01 -1.386462542928E-01 0.000000000000E+00 -3.994996248142E-01 5.654523779823E-02 0.000000000000E+00 -1.452793082669E-01 5.632250169742E-02 0.000000000000E+00 -3.065196656667E-01 6.993593039997E-02 0.000000000000E+00 -1.221491394397E+03 -4.215334581202E+02 0.000000000000E+00 1.015051409293E+01 -1.278279657090E+01 0.000000000000E+00 -1.180209496957E+03 4.254783301692E+02 0.000000000000E+00 -4.675442276583E+02 -1.366316919217E+01 0.000000000000E+00 -2.223743489323E+01 -2.794862988263E+01 0.000000000000E+00 2.759907249412E+03
 -1.238922010236E+00 2.990424054443E-01 0.000000000000E+00 -2.318247753646E+00 1.121979022097E+00 0.000000000000E+00 -2.871790084631E-01 3.724505980701E-01 0.000000000000E+00 -8.278552514093E-01 -1.892051003473E-01 0.000000000000E+00 -2.811589026140E-01 3.624334566843E-01 0.000000000000E+00 -3.116650034599E+01 5.885466734830E+01 0.000000000000E+00 1.114978889527E+00 3.819933555167E-01 0.000000000000E+00 1.134672462323E+00 -1.265379954099E-01 0.000000000000E+00 2.771257109049E-01 -7.482882403639E-02 0.000000000000E+00 9.319735623782E-01 -7.123053806550E-02 0.000000000000E+00 -4.299329963895E+02 -7.126628638752E+02 0.000000000000E+00 -2.290085979201E+01 2.605105101751E+01 0.000000000000E+00 4.256755717051E+02 -7.214142086659E+02 0.000000000000E+00 -1.002625452323E+01 -1.480628866527E+03 0.000000000000E+00 4.055122505394E+01 4.445769989060E+01 0.000000000000E+00 -5.878437715455E-01 2.801668064526E+03
 0.000000000000E+00 0.000000000000E+00 0.000000000000E+00 0.000000000000E+00 0.000000000000E+00 0.000000000000E+00 0.000000000000E+00 0.000000000000E+00 0.000000000000E+00 0.000000000000E+00 0.000000000000E+00 0.000000000000E+00 0.000000000000E+00 0.000000000000E+00 0.000000000000E+00 0.000000000000E+00 0.000000000000E+00 0.000000000000E+00 0.000000000000E+00 0.000000000000E+00 0.000000000000E+00 0.000000000000E+00 0.000000000000E+00 0.000000000000E+00 0.000000000000E+00 0.000000000000E+00 0.000000000000E+00 0.000000000000E+00 0.000000000000E+00 0.000000000000E+00 0.000000000000E+00 0.000000000000E+00 0.000000000000E+00 0.000000000000E+00 0.000000000000E+00 0.000000000000E+00 0.000000000000E+00 0.000000000000E+00 0.000000000000E+00 0.000000000000E+00 0.000000000000E+00 0.000000000000E+00 0.000000000000E+00 0.000000000000E+00 0.000000000000E+00 0.000000000000E+00 0.000000000000E+00 0.000000000000E+00
 6.958255692092E+00 -2.423592000229E+00 0.000000000000E+00 1.145077887860E+01 -2.154739742080E+00 0.000000000000E+00 1.792964941822E+00 -2.041256895449E+00 0.000000000000E+00 3.861604077669E+00 1.008966513544E+00 0.000000000000E+00 1.701267634470E+00 -1.915565124027E+00 0.000000000000E+00 -9.743820011585E+00 1.677591121063E+00 0.000000000000E+00 -5.003391795859E+00 -1.227783061626E+00 0.000000000000E+00 -4.415410331372E+00 -4.016911317850E-01 0.000000000000E+00 -9.383876940480E-01 1.223134063748E+00 0.000000000000E+00 -3.938885574458E+00 3.697862454171E-01 0.000000000000E+00 2.149237962183E+01 7.213282829077E+00 0.000000000000E+00 -1.375200295270E+03 -6.392804879951E+02 0.000000000000E+00 7.066553201471E+00 2.811267482683E+00 0.000000000000E+00 -1.212622977122E+03 3.853019519414E+02 0.000000000000E+00 3.162326410809E+01 8.625932940023E+01 0.000000000000E+00 3.124566949155E+01 1.863916068428E+01 0.000000000000E+00 3.013713044553E+03
 -6.210373976355E+00 2.473466141872E+00 0.000000000000E+00 -1.052839641488E+01 1.559523415681E+00 0.000000000000E+00 -1.622789968074E+00 1.882316758403E+00 0.000000000000E+00 -3.584145732327E+00 -9.894704406542E-01 0.000000000000E+00 -1.594215174284E+00 1.816297752744E+00 0.000000000000E+00 8.791096905449E+00 -1.870579172529E+00 0.000000000000E+00 4.606141922102E+00 9.789765030104E-01 0.000000000000E+00 4.127596386890E+00 5.068829012415E-01 0.000000000000E+00 9.378990949017E-01 -1.114868334932E+00 0.000000000000E+00 3.671314847667E+00 -3.434203905756E-01 0.000000000000E+00 -2.238889197236E+01 -5.449583403494E+00 0.000000000000E+00 -6.289751521200E+02 -7.507000817272E+02 0.000000000000E+00 -6.171524336386E+00 -1.932868639928E+00 0.000000000000E+00 3.695420461518E+02 -6.926333129138E+02 0.000000000000E+00 -7.318011995505E+01 -8.022939795352E+01 0.000000000000E+00 8.044419017665E+01 -1.813810025835E+01 0.000000000000E+00 1.319036807722E+02 2.492374663617E+03
 0.000000000000E+00 0.000000000000E+00 0.000000000000E+00 0.000000000000E+00 0.000000000000E+00 0.000000000000E+00 0.000000000000E+00 0.000000000000E+00 0.000000000000E+00 0.000000000000E+00 0.000000000000E+00 0.000000000000E+00 0.000000000000E+00 0.000000000000E+00 0.000000000000E+00 0.000000000000E+00 0.000000000000E+00 0.000000000000E+00 0.000000000000E+00 0.000000000000E+00 0.000000000000E+00 0.000000000000E+00 0.000000000000E+00 0.000000000000E+00 0.000000000000E+00 0.000000000000E+00 0.000000000000E+00 0.000000000000E+00 0.000000000000E+00 0.000000000000E+00 0.000000000000E+00 0.000000000000E+00 0.000000000000E+00 0.000000000000E+00 0.000000000000E+00 0.000000000000E+00 0.000000000000E+00 0.000000000000E+00 0.000000000000E+00 0.000000000000E+00 0.000000000000E+00 0.000000000000E+00 0.000000000000E+00 0.000000000000E+00 0.000000000000E+00 0.000000000000E+00 0.000000000000E+00 0.000000000000E+00 0.000000000000E+00 0.000000000000E+00 0.000000000000E+00
 1.521871393148E+00 -5.367540674695E-01 0.000000000000E+00 -1.227956723397E+03 4.476387581248E+02 0.000000000000E+00 4.136928714048E-01 -4.641816131649E-01 0.000000000000E+00 9.457400280120E-01 2.288144856559E-01 0.000000000000E+00 3.594891577892E-01 -4.654233646472E-01 0.000000000000E+00 3.836733137387E+01 1.532345608182E-01 0.000000000000E+00 -1.236408051894E+00 -3.313814741944E-01 0.000000000000E+00 -2.120165574408E+01 3.587426902456E+01 0.000000000000E+00 -2.886644387755E-01 2.113847268853E-01 0.000000000000E+00 -9.778019694724E-01 1.149398328278E-01 0.000000000000E+00 5.549543605696E+00 2.234204160026E+00 0.000000000000E+00 2.342442011326E+01 -2.420356095440E+01 0.000000000000E+00 1.375886556432E+00 9.885542622774E-01 0.000000000000E+00 -1.138578983117E+03 -4.075014714419E+02 0.000000000000E+00 -5.022211253369E+00 1.962682153288E+01 0.000000000000E+00 3.488002273213E+01 4.112126270683E+00 0.000000000000E+00 -3.538297830963E+01 -1.734021750395E+01 0.000000000000E+00 2.739687179698E+03
 1.083192557358E-01 -5.448634970710E-02 0.000000000000E+00 4.567559516250E+02 -7.460767876339E+02 0.000000000000E+00 -1.061746023222E-02 1.841771889072E-03 0.000000000000E+00 6.331651187267E-02 -1.114881090490E-03 0.000000000000E+00 1.692465231593E-02 -8.747536423076E-03 0.000000000000E+00 6.698698088223E+01 -3.967656269899E-01 0.000000000000E+00 -1.041192440559E-01 -3.448338603921E-02 0.000000000000E+00 -3.349216743097E+01 5.975333194276E+01 0.000000000000E+00 -2.347847873623E-02 -2.603579514137E-02 0.000000000000E+00 -1.118223406940E-01 -7.807638142559E-03 0.000000000000E+00 4.040344057917E-01 6.478140464901E-01 0.000000000000E+00 1.158954291894E+00 -2.323186154197E+00 0.000000000000E+00 2.250651282411E-01 7.384915124072E-02 0.000000000000E+00 -3.923872944812E+02 -6.746154840249E+02 0.000000000000E+00 -1.568426065641E+00 1.011724499828E+00 0.000000000000E+00 -6.563156015645E+01 1.240222997611E-01 0.000000000000E+00 2.774885761061E+01 6.126821752658E+01 0.000000000000E+00 -8.571464115935E+00 2.805894555961E+03
 0.000000000000E+00 0.000000000000E+00 0.000000000000E+00 0.000000000000E+00 0.000000000000E+00 0.000000000000E+00 0.000000000000E+00 0.000000000000E+00 0.000000000000E+00 0.000000000000E+00 0.000000000000E+00 0.000000000000E+00 0.000000000000E+00 0.000000000000E+00 0.000000000000E+00 0.000000000000E+00 0.000000000000E+00 0.000000000000E+00 0.000000000000E+00 0.000000000000E+00 0.000000000000E+00 0.000000000000E+00 0.000000000000E+00 0.000000000000E+00 0.000000000000E+00 0.000000000000E+00 0.000000000000E+00 0.000000000000E+00 0.000000000000E+00 0.000000000000E+00 0.000000000000E+00 0.000000000000E+00 0.000000000000E+00 0.000000000000E+00 0.000000000000E+00 0.000000000000E+00 0.000000000000E+00 0.000000000000E+00 0.000000000000E+00 0.000000000000E+00 0.000000000000E+00 0.000000000000E+00 0.000000000000E+00 0.000000000000E+00 0.000000000000E+00 0.000000000000E+00 0.000000000000E+00 0.000000000000E+00 0.000000000000E+00 0.000000000000E+00 0.000000000000E+00 0.000000000000E+00 0.000000000000E+00 0.000000000000E+00