#BIOSYM hessian 1
@Type: Hessian Update
@Units
 distance: 	A
 energy: 	Kcal/Mol
#header
@natom 70

#label
C1      C2      C3      C4      C5      C6      C7      C8      C9      C10     C11     C12     C13     C14     C15     C16     C17     C18     C19     C20     C21     C22     C23     H24     C25     C26     C27     C28     C29     C30     C31     C32     C33     C34     C35     C36     C37     C38     C39     C40     C41     C42     C43     C44     C45     C46     C47     C48     C49     H50     H51     H52     H53     H54     H55     H56     H57     H58     H59     H60     H61     H62     H63     H64     H65     H66     O67     H68     O69     H70

#element
C  C  C  C  C  C  C  C  C  C  C  C  C  C  C  C  C  C  C  C  C  C  C  H  C  C  C  C  C  C  C  C  C  C  C  C  C  C  C  C  C  C  C  C  C  C  C  C  C  H  H  H  H  H  H  H  H  H  H  H  H  H  H  H  H  H  O  H  O  H 

#matrix
210
 2.776068099727E+03
 -2.171156196665E+01 2.792978078678E+03
 -2.203132310288E+01 2.331909172322E+01 1.926052991520E+02
 3.751658498778E+01 7.410826835640E+01 2.109440940906E+00 2.782814436714E+03
 5.402993723840E-01 -6.938735920847E+00 -6.937487122620E-01 -2.214481869033E+01 2.748461324511E+03
 -1.120885316814E-01 -2.017439653278E-01 9.387703058524E+00 1.152131826600E+01 5.305785391217E+01 1.971474855962E+02
 -1.807318468553E+01 3.687279293104E+01 1.421368385366E+00 -3.756139874982E+00 3.536346368895E+00 1.180139031192E-01 2.802948200152E+03
 -3.213493957941E+01 4.916363806908E+01 7.021716466573E-01 1.971817307191E+01 -1.631905948663E+01 -2.132399848568E-01 3.078386370280E+01 2.725273547133E+03
 1.187099965708E-02 3.738274747818E-01 1.030241397635E+01 -3.064970240211E-01 -4.524978493425E-01 2.134444363813E+00 -2.516508198708E+01 5.283641840801E+01 1.977553592428E+02
 3.667144589772E+01 -6.134268965810E+01 -1.821981534549E+00 -2.873453157260E+01 4.313952788780E+01 1.728524482244E+00 3.642632146138E+01 8.044945460693E+01 1.638315702922E+00 2.794791018698E+03
 -7.741819288112E-02 -7.720857345047E+00 -4.748826264950E-01 -1.816067530496E+01 4.708140335347E+01 8.124446963480E-01 6.124214858023E+00 -1.889496641749E+01 -3.860762809670E-01 9.932260570043E+00 2.786940115458E+03
 -6.612903784315E-01 1.939636391639E-01 1.070558678683E+01 1.359873048192E-01 9.395050274832E-01 1.281619420224E+01 5.950966082510E-01 -2.097907800152E+00 1.179806896510E+01 -2.117508395104E+01 6.254130023097E+01 2.013362826446E+02
 -4.571227458711E-02 1.845236256661E+00 3.710439170859E-01 -5.497965321737E+00 5.353331943332E+00 3.584476472566E-01 4.987953237867E+01 -7.770897723586E+01 -3.117072415650E+00 -2.381418647469E+01 4.183440888261E+01 1.900389581930E+00 2.606874723170E+03
 -1.677359476432E-01 -4.753066708504E+00 -4.789342630069E-01 1.056228069954E+01 -1.034960851377E+01 -1.349425725608E-01 2.782345638170E+00 -1.270057529411E+01 -5.090170952869E-01 -2.888330365348E+01 5.176363082789E+01 1.053849794951E+00 -1.684556255440E+02 3.044112184938E+03
 -4.128993063778E-02 -2.836034878446E-01 2.088496800431E+00 3.390691970687E-01 9.984328246772E-03 2.768553033509E-01 2.366021036420E-02 8.514599297745E-02 2.152056497553E+01 2.905403282599E-01 -3.446786612871E-03 1.347570562445E+01 -2.713636296454E+01 7.211606413655E+01 1.680312634862E+02
 -1.223447629072E+03 4.478192067243E+02 1.107599568292E+01 -4.551890530151E+02 -9.397982869918E+00 3.962123428523E+00 -1.802594373029E+00 4.394895765685E+00 1.967929645563E-01 -2.194157003372E+00 3.927050278542E+00 8.871954436846E-02 -6.062786293630E-01 3.157467222499E+00 1.325489549891E-01 2.812364960953E+03
 4.378846999810E+02 -7.339697893816E+02 -6.473680897715E+00 -2.573853447114E+01 -1.393000295950E+03 -2.474578955337E+01 -4.480424898471E+00 1.790567790123E+01 2.152665343386E-01 -8.637775691244E+00 1.408310513355E+01 1.016222058894E+00 -5.464508496737E+00 1.089229649863E+01 8.166792781663E-01 5.169757256023E+00 2.740119801573E+03
 1.593408226768E+01 -9.907089057621E+00 -8.301981846039E+01 1.037125031590E+00 -1.923418436408E+01 -7.996543878426E+01 2.729189376391E-01 -6.232229819572E-01 4.602549690806E+00 -1.334191124120E+00 -4.361391825592E-01 -8.107475461168E+00 -4.107896652806E-01 -3.532847229684E-01 1.580668406849E+00 -4.106929644598E+01 2.271782698249E+01 1.937229939463E+02
 -1.197889978004E+03 -4.122652629888E+02 5.230453160257E+00 6.304078506510E+00 -5.385900863809E+00 -5.528842969847E-01 -1.236773415977E+03 4.349849981613E+02 1.987693590071E+01 -4.639261647986E+02 -1.692370324671E+01 3.144782904968E+00 2.794809072327E+00 -6.390047572609E+00 -5.093246834853E-01 -1.673339079683E+01 -2.634713202189E+01 2.810305694747E-02 2.789672714382E+03
 -4.079713183130E+02 -6.773491501456E+02 -4.499946577722E+00 -1.502227067771E+01 1.139899361902E+01 5.109698842670E-01 4.470023669902E+02 -7.189151734109E+02 -1.778462579381E+01 -2.359598991905E+01 -1.440680690979E+03 -3.169593440860E+01 -5.173633258843E+00 1.217451692275E+01 1.339590139037E+00 3.072050730836E+01 4.576748485048E+01 2.218541357541E+00 -2.106724988902E+01 2.748046946296E+03
 4.263110418020E+00 -5.200683042367E+00 -7.841644572503E+01 1.047587993152E+00 -5.454502769358E-01 -7.965794086980E+00 2.111516475661E+01 -1.850056550603E+01 -8.518677906317E+01 3.686385511266E+00 -3.161015011561E+01 -7.998060356562E+01 1.917594903334E-01 6.323351437654E-01 -9.436890939537E+00 4.757009546563E-01 4.887663678197E-01 7.986394374029E+00 -2.835652574244E+01 5.399044250845E+01 2.002507788746E+02
 3.438054471111E-01 -9.172351165210E+00 -8.629426816564E-01 -1.211748882191E+03 -4.287778887270E+02 -1.221885171218E+01 7.051007840334E+00 -2.165950543878E+01 1.144419915694E+00 -1.200080909892E+03 4.219400538796E+02 1.757300322206E+01 5.930756102217E+00 -1.406860114372E+01 -1.257203822099E+00 4.001823175856E+01 1.323601721810E+01 2.095370725551E+00 3.336834341994E+01 1.396973171566E+01 -4.079136690983E-01 2.788273706620E+03
 -6.151039107647E-01 4.229587051455E+00 2.047161899953E-01 -4.290376116607E+02 -6.946795746984E+02 -1.524690500487E+01 -2.691956995124E+00 9.647150850013E+00 -1.685019406738E-01 4.376605067219E+02 -7.297806748176E+02 -2.076881474247E+01 -2.764694716028E+00 6.702124836101E+00 3.305957448450E-01 -6.833590035412E+01 -5.329681175910E+00 -1.512425792302E+00 7.031893742591E+01 -6.389250836668E+00 -9.956646594991E-01 7.262426184124E+00 2.789651098241E+03
 -7.368117873567E-01 6.085482425236E-01 -8.015689242728E+00 -1.386165132491E+01 -1.575229145252E+01 -8.214663369269E+01 5.641603931840E-01 2.861168137755E-01 5.736103248111E+00 2.004418572249E+01 -2.226861124868E+01 -8.179153196701E+01 2.722866167697E-01 -8.836328872184E-02 1.320025209089E+01 -5.180757436170E-01 -3.463033104563E-01 1.174930778785E+01 9.401986263830E-01 1.829050482525E-01 9.786967271384E+00 -9.428335681564E+00 8.141141395410E+01 2.096084901140E+02
 8.235717299020E-02 -1.071255052590E+00 -2.768253692513E-02 6.368257018842E-01 5.495621739447E-01 2.138109312831E-01 -1.242912925082E+03 -4.458165260528E+02 2.144794427464E+00 1.047798605063E+00 -1.774242814728E+00 -3.827311264005E-01 -5.663669282896E+02 -1.168863919026E+01 4.402058834978E+00 5.250831033384E-02 -3.202617381649E-02 5.052668591079E-03 -2.143632403926E+01 -3.624589128376E+01 -6.568620497293E-01 -6.778794295491E-01 -2.779147126717E-01 -1.183911610762E-01 2.604419648090E+03
 -6.931127354391E-01 6.136746775145E+00 5.205854949511E-01 -1.348601390805E+01 9.841383150856E+00 4.048344487165E-01 -4.636971058478E+02 -7.549356826033E+02 -1.058093388468E+01 -8.554393909420E+00 1.186061953731E+01 9.546435235041E-01 -2.772648168365E+01 -1.800004734328E+03 -4.272730516848E+01 -3.654045118349E+00 -9.887089323010E+00 4.251165737490E-01 3.968224462269E+01 5.367258786301E+01 9.477908672217E-01 8.866687771191E+00 -3.873567304903E+00 -4.077028786016E-02 1.909710030168E+02 3.021504410766E+03
 -3.615881157027E-01 -2.053942188104E-01 6.180489922035E+00 -1.060623800500E-01 3.994246751997E-01 1.127453621970E-01 1.404719781752E+00 -1.138466768007E+01 -7.487995379880E+01 3.542443468287E-01 -7.062164283225E-01 -6.025342615109E+00 4.630682831269E+00 -4.287321343217E+01 -6.423824599215E+01 1.462024990061E-01 1.649325959807E-01 2.272214409747E+00 8.476376720268E-01 2.384649847806E+00 1.341162909323E+01 -1.573514389522E+00 2.688416494424E-01 6.472431278873E+00 -1.946304377682E+01 6.601310736793E+01 1.629095807897E+02
 7.517401090622E-01 -3.442073776759E+00 -7.772211671877E-03 7.751343606792E+00 -5.218937223920E+00 -3.267370986687E-01 1.260717262288E+00 -9.303854112052E+00 7.669546299548E-01 -1.230953346881E+03 -4.399737120183E+02 -9.602682536376E-01 -1.262067762623E+03 4.594582996935E+02 2.225077075672E+01 1.679724052484E+00 5.389959071263E+00 6.123936700511E-01 3.703860839399E+01 3.187816865626E+00 -6.982214304365E-01 -2.431691565640E+01 -3.199528270230E+01 -2.885220327475E-01 5.327006535168E+01 2.457045137940E+00 -7.033801988218E-01 2.855368353951E+03
 -3.871143260740E-01 5.894310767377E+00 3.419426478434E-01 -1.227939878725E+01 1.010640320316E+01 6.785580347534E-01 -3.861378458040E+00 1.613781353014E+01 -1.107116688841E+00 -4.398417460248E+02 -7.154595340426E+02 -1.027433410262E+01 4.509160182366E+02 -7.802094851307E+02 -2.254453544350E+01 -4.219189911815E+00 -1.004129907492E+01 -2.599011560595E-02 -6.388125393304E+01 -7.452911040705E+00 8.714364629395E-01 4.395907465869E+01 5.555196981991E+01 -1.269418885408E-01 8.312192657005E+01 -7.443259452586E+00 -5.076072418465E-01 -3.459282020731E+01 2.874091189256E+03
 2.913113555646E-01 -4.787573209427E-01 6.785334844462E+00 2.558643209480E-01 -4.804825139256E-01 8.956295318105E+00 1.183940817725E+00 1.184062460774E+00 -2.574555519527E+00 -4.455289305513E-01 -1.340764213565E+01 -8.079971296158E+01 2.246689109662E+01 -2.134563334374E+01 -6.728165012189E+01 2.901642635538E-01 -1.051832554190E-01 -1.316864551132E+00 -2.157901757332E+00 1.405601790655E-01 1.430290462072E+01 9.826973011406E-01 1.675772876200E+00 1.499359358020E+01 1.022510771540E+00 -9.517617779957E-01 1.489199232742E+01 -2.532436097222E+01 6.940505810592E+01 2.057251056970E+02
 1.691426193134E+00 -7.126145974670E+00 8.189685477849E-01 1.367386212554E+01 3.565892684832E+00 2.382762435899E+00 -3.956834991015E+00 -1.339992126213E+01 2.849571907100E+00 6.696442591281E+00 -4.524927105131E+00 9.813424499338E-01 4.323811690016E+00 -7.286121966454E+00 -4.101297984379E-01 -7.478241627266E+00 5.477036646293E+00 1.498361711523E+00 -5.330877608141E-01 5.680679878287E+00 -4.229106553362E+00 -1.505136734090E+01 -2.251848436843E+00 -2.439191100987E+00 -1.843601576268E+00 1.015627284327E+01 1.795020197925E-01 -7.878685265625E+00 2.916829319260E+00 4.276206443824E-01 2.544797241431E+03
 7.892179552776E+00 -1.782787544076E+01 1.499693962747E+00 2.164523548276E+01 -2.382851039806E+01 1.071445747574E+00 9.090595629641E+00 -2.726008500881E+01 2.283831326161E-01 1.228921881797E+01 -2.210899394906E+01 5.816777916693E-02 2.659746834465E+00 -1.457254442731E+01 -2.213011133131E+00 1.199289446625E+01 2.231219087315E+01 -6.037633249843E-01 -5.882951091265E+00 1.716083048986E+01 -1.271626901833E+00 -1.299784025201E+01 1.377738315879E+01 -1.018045497624E+00 -1.741597741189E+00 7.950227821171E+00 -1.518283174347E+00 -2.078514961018E+00 1.122244922871E+01 -2.862188279639E+00 6.221615133288E+01 2.472992408531E+03
 -1.552531949515E+00 1.681318575642E-01 -1.074983616934E+00 -8.133314975774E+00 4.971135332868E+00 1.128253470297E+00 6.565897580460E-01 2.641503753134E+00 -1.923729811669E+00 -3.802112343233E+00 2.113491727838E+00 -2.499320894014E+00 -1.238214191752E+00 -7.227563994845E-02 -3.013320955538E+00 6.038311706281E+00 -9.253009281452E-01 4.106316978241E+00 2.160832721863E+00 -9.621966084724E-01 -1.789111698607E+00 6.836215474536E+00 -2.811859580141E+00 -1.590753098314E+00 1.185332132781E+00 -9.023101873820E-01 -4.789071303728E+00 3.475434739382E+00 -7.278210066413E-01 -1.158819503920E+00 -3.075914881973E+02 6.932181361680E+01 3.602672758349E+02
 2.360545877032E+00 -4.320498849024E+00 -5.849919999031E+00 -5.139061714558E+00 1.275262030002E+01 -8.343563166426E+00 1.186329015766E+01 2.477767610737E+01 -5.451991295566E+00 -1.728723291185E+00 -8.192529841217E-01 -4.040157047105E+00 -1.884794455982E+01 3.012809299230E+01 -1.623587675219E+00 -1.086163294170E+01 -1.484539354448E+01 2.133097186157E+00 3.562957590096E+00 -2.147021551727E+00 4.354854938396E+00 6.793896704682E+00 -8.411843426855E+00 -4.553750508496E-01 -1.674294575404E+01 -3.325273962019E+01 1.004249693299E+00 1.971432897688E+01 -3.145712450420E+01 -1.148835715329E+01 9.774415929415E+01 5.107607536716E+01 -3.999943818900E+01 1.823627919458E+03
 3.780258870287E-01 8.057898805793E+00 2.145282700663E+00 -3.023826457454E+01 4.061491787918E+01 5.178171231609E+00 -4.796648387772E+00 4.195009969304E+01 9.386513147035E+00 -1.844064303549E+01 2.387646226158E+01 -3.013817849160E+00 -1.742574742980E+01 3.718337226739E+01 -2.560035832806E+00 -1.804323959860E+01 -3.145736632215E+01 -4.943833012679E+00 1.952807032309E+01 -2.085476617112E+01 -6.133718023995E-02 2.306477512151E+01 -2.500529952350E+01 -1.366415571579E+01 -1.169768522701E+01 -3.368395565131E+01 -1.079526739634E+01 2.149306093723E+01 -3.849533304143E+01 4.673594540916E+00 -2.307189494764E+02 1.664500562092E+02 -2.100954596938E+01 3.813547804082E+02 1.883188224305E+03
 4.068386423081E+00 1.075735398447E+01 7.145699191003E-01 -6.430687645424E+00 -1.129961077313E+01 -5.951560455488E+00 -7.135124665900E+00 1.733565401696E+01 -8.576757901575E+00 -1.284039196738E+01 1.860045114683E+01 -4.454599125335E+00 -5.222009489044E+00 8.601739430150E+00 -5.624005356380E+00 -2.501269391130E-01 -1.458911835570E+01 -1.948233490508E+00 1.553383630468E+00 -2.065773384953E+01 2.864712051021E+00 1.995182544674E+01 -1.343458898763E+00 5.668150572876E+00 3.516062962479E+00 -8.533672670064E+00 -3.507574172996E-01 2.564062232925E+00 -5.557880432306E+00 -3.209545053538E+00 1.917269413882E+02 -1.277256817762E+02 -3.908484775711E+00 3.476766108512E+02 -5.421153403458E+01 1.914704843026E+03
 -2.147475556704E+01 -3.856434809232E+01 -1.850230566374E-01 4.862871222818E+01 -1.248466568061E+01 -2.554921578724E+00 4.937676001924E+00 -1.634728634930E+01 3.816265756169E-01 8.096516429730E+00 -1.237121616844E+01 -1.697239442094E+00 6.934623056164E+00 -1.313756648101E+01 -1.898119390687E-01 -1.252602418824E+03 -4.257080221248E+02 2.193507099123E+01 -7.750870380955E+00 1.123001456621E+01 1.359910904699E+00 -1.185305175037E+01 5.577051010458E+00 -6.603983002496E-01 2.099853061632E+00 1.097781229457E+01 -8.154804300474E-01 -5.931736975893E+00 1.177975134666E+01 5.273373585730E-01 -2.365801984763E+01 3.881595036897E+01 -4.709437479334E+00 5.119563437932E+01 4.262212649013E+01 9.809239363172E+00 2.760871998611E+03
 3.735494586314E+01 5.772771683339E+01 -8.665178936818E-01 -6.185692976887E+01 -1.837106256793E+00 1.973418305792E+00 1.767725378650E+00 -4.009633221431E+00 1.978178478227E-01 2.575467665182E+00 -4.278314180955E+00 7.281649488905E-02 1.780161574385E-01 -8.675789869778E-01 -1.601557145866E-01 -4.440013587162E+02 -7.204765876317E+02 5.993524013665E+00 -2.795603662459E-01 3.346359954038E+00 -6.872098563264E-01 -3.535666567237E+00 1.481543938176E+00 -4.672653705037E-03 -1.504760516298E+00 1.469694329627E-01 -2.963275753704E-01 3.354562089047E-01 9.448032891101E-02 -3.252399241051E-01 -2.955270874121E+01 3.930059162570E+01 -7.095570935265E+00 -2.977998561679E+01 -2.727756671367E-01 9.773627204066E+00 3.476905929981E+01 2.773484927028E+03
 -2.856030805697E-02 -1.801952733554E+00 8.224997091630E+00 -1.441372956625E+00 1.392092331752E+00 8.589379585144E+00 2.226743254965E-01 -8.227435762636E-01 -1.941145445524E+00 -2.634599291649E-01 1.584839890650E-01 -8.221836855679E-01 -4.826086793631E-01 -3.111244031379E-01 -5.384516798914E-01 3.016952023283E+01 9.032583106734E+00 -8.290310107377E+01 2.521698066307E-01 3.082585738040E-01 4.757238926215E+00 -1.983534216807E-01 -2.621650531249E-01 4.583420312426E+00 -2.608960125336E-01 5.490844157769E-01 -1.091089394195E-01 2.726819293945E-01 4.537384229329E-01 -2.318153888667E+00 -2.117117395897E+00 -8.567931852931E+00 8.443489193352E+00 1.097460109494E+01 -8.337841072903E+00 -6.109337366525E+00 -6.561962022736E+01 -1.894272759586E+01 1.968722664642E+02
 -1.944008374578E+00 1.377053410452E+01 3.007381691955E+00 -5.747164969170E+01 -2.860187231216E-01 4.463971121550E-01 -5.318873344311E+00 4.051772196161E+01 2.471559962545E-01 -1.783107417272E+01 2.785670442439E+01 1.773160430752E+00 -1.715462788697E+01 2.718994302909E+01 1.442248035329E+00 -3.997010782354E+00 -3.301524275152E+01 1.771209249211E+00 1.477266524622E+01 -2.709826993541E+01 -3.989317527374E-01 3.222198161693E+01 -1.410159504273E+01 -8.970267925774E-01 -3.645509114423E+00 -3.074127188746E+01 -4.986869163761E-01 1.831091080801E+01 -2.927772758186E+01 -3.702409096540E+00 1.130391723400E+02 -8.219833171182E+01 8.600294164890E+00 -1.099056505016E+02 -1.046782272537E+01 -4.067707120011E+01 8.039721403425E+01 6.443288740431E+01 -8.365303021203E+00 2.631573197590E+03
 -2.447296475633E+00 1.769154086081E+01 -1.369860208676E+00 3.913966230199E+00 7.872874440506E+01 2.588979267571E+00 -1.175775629532E+01 3.160939325503E+01 -1.048797465244E+00 -1.660952423003E+01 2.887992344301E+01 1.668117745038E+00 -4.813457504186E+00 1.315429937336E+01 1.024821928537E+00 -6.515835170213E+00 -2.586323661982E+01 4.144004046031E-01 1.057582935092E+01 -2.793953577851E+01 -4.048419543513E-01 3.069167006877E+01 -1.243819708479E+01 1.932670903006E+00 5.562444284446E+00 -1.462632948584E+01 2.258840358359E+00 7.530158347240E+00 -1.517508890788E+01 8.107597259784E-01 -4.028700589652E+01 8.780458093332E+01 2.021302738445E-01 1.805347299941E+01 3.667162248350E+01 -1.773911089461E+01 8.000941759514E+00 1.275700920752E+01 1.745103875788E+00 -6.524612886620E+01 2.642334862221E+03
 -3.193136590013E+00 1.555382122962E+00 -1.145721251501E+00 -1.717340874691E+00 1.107592792695E+01 7.338971714617E+00 -9.397035039917E-01 3.622819769375E+00 -9.387524414514E-01 -1.606860746487E-02 2.935298818125E+00 -7.334476545005E-01 -5.009991571766E-01 3.536649237450E+00 4.761314588388E+00 5.030188792657E+00 -3.884929097236E+00 -6.887092517141E+00 1.979307646514E+00 -2.013008886033E+00 -3.262976140288E+00 -3.486969456137E+00 -2.695881761843E+00 1.123851329279E+01 -4.540497982294E-01 -4.082172341048E+00 1.004846749717E+00 2.666404838831E-01 -3.433270933995E+00 2.290965168882E+00 1.290083151808E+01 -5.787075789551E+00 1.629368685458E+01 -3.052503185987E+01 -1.863154809090E+01 1.634310629827E+01 -2.136466694677E+00 -9.873637997857E+00 8.443053506441E+00 2.841618412115E+02 -2.085084771638E+02 2.522182085092E+02
 -9.208546663427E+00 4.752601473206E+00 2.128006354168E+00 -3.372568252429E+01 6.180837653211E+00 -3.362712454463E+00 1.391860105903E+01 2.037677094608E-01 -4.171230388888E+00 1.660264575357E+00 -3.283584330894E+00 8.591380699430E-01 -7.067271437945E+00 -9.485950084350E+00 1.567554662541E+00 2.362033169140E+01 -1.131216029265E+01 1.583284146244E+00 -6.771548999231E+00 2.436412014424E+00 6.341823264651E+00 5.382805533677E+00 6.676059977527E+00 2.623461214044E+00 2.179884643536E+00 -3.840182760865E+00 2.598462123847E+00 5.858615311003E+00 5.594259579436E+00 -4.249417056975E+00 -1.043436702703E+03 3.621173152130E+02 1.372263187302E+02 -2.516367765591E+02 2.615002575373E+02 -1.791435507439E+02 -1.199283079304E+01 8.424511864272E+00 -1.594764091424E-01 -1.233627874860E+02 7.903515256683E+00 -2.286567436480E+01 2.205330405034E+03
 -1.214504758241E+01 1.339630727408E+01 1.722875209125E-01 -1.217323862026E+01 -6.093039520079E-01 -1.693476073416E-01 -1.753946042144E-01 -1.551016220606E+01 6.722482101258E-01 7.397518040674E+00 -2.844779940369E+00 4.356005496163E+00 8.677008779239E+00 -3.018968229845E+01 -2.074492301457E-01 2.331250281007E+01 -9.396789223034E+00 3.015708103156E-01 -7.747077978193E+00 -1.658197369390E+00 1.052782035233E+00 -2.481837368308E+00 7.194959102011E+00 5.871617670261E-01 1.262993981661E+01 1.460093701481E+01 3.890781770604E+00 -8.842005835250E+00 1.989570068984E+01 8.517035473906E-01 6.211198036863E+02 -7.867039831040E+02 2.255686533456E+00 2.852887571031E+01 -8.719051502574E+02 4.150782385708E+02 -4.342060758207E+01 2.694066761528E+01 8.079966625794E-01 -3.268225434757E+01 -3.989883901344E+01 8.423059678378E+00 -5.899281919575E+02 2.394005166223E+03
 -7.699986578325E+00 -2.922633241472E+00 -3.329701883952E+00 1.565812619653E+01 7.331277611696E+00 2.813007854573E-01 -1.894217738212E-01 -2.108659858183E+01 -2.638821877924E+00 6.485507317621E+00 -1.672466283076E+01 -6.339183505725E-01 2.791291858000E+00 -1.451666748488E+01 -4.318231880014E+00 8.522420242427E+00 9.646836438699E+00 -7.093426373893E-01 -9.215547268840E-01 1.668340126922E+01 -6.715311266910E+00 -2.683612122760E+01 -2.384187967450E+00 1.042658574266E+00 -2.724669797468E+00 1.854826685307E+01 -3.779963191446E+00 -9.093319401026E+00 1.121705697115E+01 -1.165820454429E+00 7.983016337735E+01 1.739341194267E+01 -2.004344100361E+02 -9.994460444916E+01 6.336416222917E+02 -4.323839413694E+02 -7.869972240380E+00 2.253118518198E+00 3.407805180399E+00 2.258777960506E+01 7.578113943312E+01 -4.066881939541E+00 -9.948890973124E+01 -4.201968740327E+02 1.899367229814E+03
 1.164782695567E+00 7.385563470186E+00 3.591863656799E-01 -1.278598405628E+01 1.448726449126E+01 1.234797242845E-01 -6.400645093250E+00 2.120061660241E+01 1.102861724268E+00 -1.090518133492E+01 1.582905453796E+01 7.468246885403E-01 -6.105378596298E+00 1.616205981825E+01 2.721299132691E+00 -2.578175036930E+01 2.088859824444E+01 1.279439526285E-01 1.041126900841E+01 -1.535039355122E+01 -1.799340463268E+00 1.719165284890E+01 -9.206059799492E+00 1.373384561860E+00 -1.325805950915E+00 -1.528850767596E+01 1.043820619553E+00 8.918201851511E+00 -1.665536681244E+01 8.635086161047E-01 -1.206169873973E+03 -4.200062760227E+02 8.466405473222E+01 -9.310885693822E+01 -2.873312339811E+01 -2.340395791790E+01 -1.144237475432E+03 4.188924544030E+02 3.710119645660E+01 -4.769217331084E+02 -1.871160083604E+01 -1.110200722847E+01 2.229274014867E+01 4.076577375312E+00 -2.309332627838E+01 2.687283161329E+03
 -3.991489726711E-02 -8.283849454843E+00 -1.214656178371E+00 1.180367736308E+01 -7.924550688056E+00 1.054247412526E-01 7.824198479672E+00 -1.376746852503E+01 -2.310738752092E-01 7.976996979380E+00 -1.563427696580E+01 -1.551963422431E+00 1.162084857835E+00 -5.566255404727E+00 -6.693433177291E-01 -2.803673958152E+01 7.011736742381E+01 2.209819416890E+00 -4.413326674268E+00 1.375892441178E+01 1.484809028073E+00 -1.200346328062E+01 4.011099310095E+00 -2.363480388796E+00 -3.656516368847E+00 2.180281132730E+00 -1.626819381822E+00 4.706565496293E-01 3.580623098573E+00 -1.463770587113E+00 -4.079580801220E+02 -7.638102062218E+02 2.592874382445E+01 -4.786306302359E+01 -3.107347701912E+00 -2.137045443829E+01 4.154128245922E+02 -7.116867078712E+02 5.582333887856E+00 2.120553507007E+00 -1.396164217613E+03 9.017934989905E+01 2.646704297988E+01 8.821070810528E+01 -6.272715689730E+01 1.215950329208E+01 2.730955246327E+03
 1.207450407981E+00 2.990000034860E+00 5.290928803594E+00 -2.648772687759E+00 -2.037871653401E+00 -3.456422362382E+00 -8.928461635666E-01 2.724020824618E+00 3.746178406256E+00 -1.321190515005E+00 1.300614842500E+00 1.033236642866E+00 3.743209296462E-01 3.539675226615E-01 -1.976624695229E+00 -3.765407388676E+00 -9.076147332427E-01 6.431013901528E+00 6.420011940226E-01 -2.110326149355E+00 -1.968926882370E+00 3.969675856287E+00 -8.294454726260E-01 -4.109665077515E+00 7.700052161983E-01 4.194863456456E-01 -5.676274528793E+00 3.653425229996E-01 -1.971227299220E-01 4.964423232595E+00 8.369991095088E+01 3.577097559217E+01 -9.990553007856E+01 -1.408440422812E+01 2.047971128681E+01 4.868705924110E+00 3.734373945986E+01 7.469568194947E+00 -8.474848831925E+01 -2.257362936205E+01 7.774619814106E+01 -8.611674464035E+01 -7.338476996201E+00 2.330097293350E+00 2.053230308775E+01 -1.095267509110E+02 -1.193042206678E+02 2.263512116531E+02
 7.880190980745E+00 -2.001317609240E+01 -4.842652637603E+00 4.893075047185E+01 -5.129084195936E+01 -5.171970093641E+00 3.021103459644E+00 -6.403736601432E+01 -2.662784235655E+00 2.389766626264E+01 -3.195613125354E+01 -2.392695552079E-01 2.865981201846E+01 -5.622251382569E+01 -4.266735024560E+00 1.414263836690E+01 4.496310211566E+01 5.724635082380E-01 -2.075106849285E+01 2.524909532456E+01 8.721764019395E-01 -2.856682142968E+01 2.592789410211E+01 1.352539103558E+00 1.628662037273E+01 4.763040529760E+01 4.407652165952E+00 -2.722957941191E+01 4.835653863778E+01 7.461561994753E-01 -8.141829100571E+01 -6.277663118867E+01 -1.737021414459E+01 -9.215036273929E+02 -4.240628878414E+02 -2.156823217958E+02 -6.382818388636E+01 8.328785581015E+00 9.239495385363E+00 -1.152158843521E+03 4.200378098672E+02 -1.927292771662E+02 2.362312878732E+01 -9.678155803743E+01 1.118924828136E+02 1.481446171113E+02 5.001246251676E+01 -1.496253219483E+01 2.628948968906E+03
 -7.118368115461E-02 -8.011047325662E+00 1.774510204763E+00 2.654118735791E+01 -2.392920715996E+01 1.973392977803E+00 2.186357011645E+00 -3.455452449951E+01 -1.238972044976E+00 1.586596051870E+01 -1.880577650725E+01 2.060979987945E+00 1.685512929227E+01 -2.900463208424E+01 1.391175192583E+00 9.127622519190E+00 2.219813163234E+01 6.479770778153E-01 -1.005163706013E+01 1.395499013775E+01 2.293959077044E-01 -2.174323579310E+01 1.166065642014E+01 5.159974809602E+00 7.590556057868E+00 2.165828522445E+01 2.496136938617E+00 -1.425051601558E+01 2.369818829825E+01 5.021782460350E+00 4.619638633569E+01 -4.722433354407E+01 1.328377181789E+01 -4.913486700357E+02 -4.358856065187E+02 -8.060245406352E+01 -3.577998834108E+01 3.174764500347E+00 -2.147065161096E+00 4.827602838116E+02 -7.634555549736E+02 1.523441252973E+02 -1.300797906836E+02 -1.051290173492E+02 -9.131268007615E+00 1.078301224309E+02 1.491854490974E+01 6.506492307326E+00 -6.983856408132E+01 2.299266423466E+03
 -5.031070727760E+00 2.731259693915E+00 -9.955665308000E-01 -7.448489401329E+00 -5.985730102824E-01 7.030074619678E+00 -1.842975338405E+00 1.780950140327E+00 -6.615186956885E+00 -1.717064034855E+00 1.388083466217E+00 2.019160206419E+00 7.071411392572E-01 -4.631987414804E-01 -1.435059714282E+00 1.185006616353E+00 1.262734148126E+00 -9.751710225041E-02 -1.768540881956E+00 -1.371181047634E+00 1.449037632947E+00 -8.730439700260E-01 -2.067194028930E+00 -1.942727964494E-01 1.828032506026E+00 1.415362665304E+00 -1.663848175918E+00 -3.119247461233E+00 1.982391093061E+00 -1.203411123895E+00 5.365428857847E-02 2.616581006247E+01 -1.111168297587E+01 -1.319094953948E+02 6.754074832705E+01 -1.956776186391E+02 -1.079453403144E+01 3.728922956362E+00 5.254806282144E+00 -2.011533605597E+02 1.246565313859E+02 -1.129961369665E+02 4.142145703111E+01 -2.679232799028E+01 4.718694082541E+01 7.484187565558E+00 2.340458910607E+01 1.635759256063E+01 3.267990452703E+02 -3.399771483950E+02 3.960706372874E+02
 4.945893848593E+00 -2.075135841363E+01 -1.196161286246E+00 -1.189853706856E+03 4.240561816234E+02 -3.297832548523E+00 7.469414542145E+00 -4.915288289327E+01 1.879320120198E+00 2.301203722465E+01 -3.456649011258E+01 -2.366204052972E+00 1.818390143323E+01 -3.080857024088E+01 -6.093719436008E-02 4.568339593027E+01 3.663637708433E+01 -1.135964095596E+00 -1.284946517104E+01 2.928710497162E+01 -1.672311441939E+00 -5.506064562198E+01 5.134352632503E+01 2.705910282400E+00 1.631857226512E+00 2.672253597364E+01 1.833512133404E-01 -1.480952323008E+01 2.485141220928E+01 3.126635649636E+00 -3.557040399017E+01 -3.960079750388E+01 1.171374981480E+01 5.941410759212E+01 6.233891339692E+01 7.120948322002E-01 -3.064921566511E+01 -8.663790448042E+00 -1.917813308311E+00 -1.014426149733E+03 -3.068405478126E+02 -5.374890700631E+01 1.005516119810E+02 4.384970582689E+01 -4.210179908594E+01 6.003589521299E+01 -1.997872985504E+01 8.049586486432E+00 -1.482482046968E+02 -9.864876192945E+01 9.319522770623E+00 2.613368106482E+03
 2.387528021848E+00 -1.124747890117E+01 -3.146248170056E-01 4.932900644148E+02 -7.821360136239E+02 -1.839141149870E+01 3.956616947538E+00 -2.429726955223E+01 6.370754277977E-01 1.170457155978E+01 -1.715279442115E+01 -3.204691602269E-01 7.354228067174E+00 -1.473194021964E+01 -5.622318797920E-01 6.963588606362E+01 1.730422891875E+01 -5.845504230825E-01 -6.658626071828E+00 1.528672861912E+01 -1.150107080954E+00 -5.240014123142E+01 6.897193422059E+01 1.093704652181E+00 -1.079412869244E-01 1.332558099722E+01 4.599593800068E-02 -8.009963293984E+00 1.287221668362E+01 4.240556472620E-01 -2.952076015410E+01 -2.446807422970E+01 5.572904785782E+00 2.538788887476E+01 2.751777794835E+01 1.527329826796E+01 -1.142306803751E+01 -3.985346908805E+00 -8.517073776428E-02 -3.365767301576E+02 -6.071592420052E+02 -1.446631583262E+01 3.360977238565E+01 1.208659641827E+01 -3.194180152732E+01 -4.259228453745E+01 -1.137487743288E+01 -3.704666446023E+00 -2.123452721320E+01 2.782925170608E+01 -6.249238621928E+00 -8.871768487247E+01 2.781347072028E+03
 1.284240757945E+00 -2.345795331003E+00 5.853703773665E+00 9.205025758921E-01 -2.477675123877E+01 -8.416835049430E+01 -1.377800629312E-01 -2.580965745004E+00 -1.225771904160E+00 -3.711158373437E-01 -1.666275146967E+00 5.503741943212E+00 2.600512403698E-01 -2.128148616015E+00 -3.670981095589E-01 -1.424802418327E+00 5.026760112454E+00 1.210074512933E+01 -1.865863754320E-01 1.997789780077E+00 1.613458914193E+00 1.621475788622E+00 1.652908488937E+00 1.308615672652E+01 6.910638040678E-01 2.380182113176E+00 1.353919505601E-01 5.159290899548E-02 8.114442997200E-01 -3.263862279827E+00 -5.548674098273E+00 1.206737189423E+00 4.728648437265E+00 2.041570742706E+00 2.592967036361E+01 2.681992913486E+01 3.063637774112E+00 2.078899202029E+00 -7.147280332485E+00 -5.299521157991E+01 -7.666799707660E+00 -8.442585705772E+01 8.051531216330E+00 9.254700324449E-01 -7.853399229471E+00 7.530889794041E+00 -2.968475663034E+00 3.577784034898E+00 -2.001824721506E+01 -2.153723389951E+01 1.518031508945E+00 6.045184291369E+01 1.223079294688E+02 2.109221443054E+02