#BIOSYM hessian 1
@Type: Hessian Update
@Units
 distance: 	A
 energy: 	Kcal/Mol
#header
@natom 67

#label
C1      C2      C3      C4      C5      C6      C7      C8      C9      C10     C11     C12     C13     C14     C15     C16     C17     C18     C19     C20     C21     C22     C23     H24     C25     C26     C27     C28     C29     C30     C31     C32     C33     C34     C35     C36     C37     C38     C39     C40     C41     C42     C43     C44     C45     C46     C47     C48     C49     H50     H51     H52     H53     H54     H55     H56     H57     H58     H59     H60     H61     H62     H63     H64     H65     H66     O67

#element
C  C  C  C  C  C  C  C  C  C  C  C  C  C  C  C  C  C  C  C  C  C  C  H  C  C  C  C  C  C  C  C  C  C  C  C  C  C  C  C  C  C  C  C  C  C  C  C  C  H  H  H  H  H  H  H  H  H  H  H  H  H  H  H  H  H  O 

#matrix
201
 2.778097882344E+03
 -1.660831404986E+01 2.806475114200E+03
 -1.347997430290E+01 6.892346388619E+00 1.930278224394E+02
 4.206546050086E+01 6.497063812485E+01 3.141170160988E-01 2.794989451097E+03
 -2.626010246411E+00 -5.450134882684E-01 7.002106253714E-02 -6.503648987042E+00 2.740215031759E+03
 -7.511982063994E-01 -4.338599750731E-02 3.928953906405E+00 -8.632980145488E+00 7.140383535247E+00 2.134530530965E+02
 -1.950933729944E+01 3.394452843645E+01 1.043357276399E-01 -2.466573099881E+00 -4.979752111511E-01 -4.992952249248E-01 2.797218052563E+03
 -3.455198499134E+01 5.939021367570E+01 1.124918271379E+00 4.209965968266E-01 1.506168858592E-01 -1.036782589226E+00 2.049631531021E+01 2.741567302295E+03
 -6.413397705045E-01 3.231132510336E-02 1.151065563191E+01 -6.595247338706E-01 -5.961282942588E-01 -7.931500729786E+00 -4.115788836330E+01 -3.590129555176E+01 1.906758750402E+02
 3.781770918127E+01 -6.738433688215E+01 8.138483238654E-01 -2.419698228900E+01 3.346943134707E+01 1.059097643932E+00 4.115359912261E+01 7.097148837740E+01 -2.747725132077E+00 2.787087923494E+03
 -2.197440774963E+00 1.534502227445E+00 -3.055774228020E-01 -2.935211370473E+01 5.970066244666E+01 1.700220903506E+00 -1.562033759337E+00 -4.944993978199E+00 1.815419895335E+00 -6.059150315204E-01 2.794429244713E+03
 1.431677578338E-01 -5.442482426141E-01 9.635575070252E+00 -1.152190672783E+00 -6.722475933038E-01 3.134252837793E+00 -7.164608465789E-01 -5.784488871435E-01 1.101381760056E+01 -9.109057776970E+01 -3.812876721441E+01 2.026058060774E+02
 1.314840557874E-01 1.143538904401E-01 1.062396762581E-02 1.527067673359E+00 -2.086228180569E-01 -1.308141753918E-01 5.136454082360E+01 -8.224500363279E+01 2.056633952304E+00 -2.183234093849E+01 3.801693129251E+01 -4.949529934536E-01 2.598959078770E+03
 -1.055057370001E+00 3.071218991887E-01 5.624449316433E-01 -2.354908861286E+00 1.241871808641E+00 8.290750485222E-02 -1.491995593908E+00 -2.849817680083E+00 5.896127331902E-02 -3.327168938274E+01 5.657155867129E+01 -5.178376267666E-01 -1.699624759147E+02 3.044809609188E+03
 -2.739068325173E-01 1.334031158354E-01 7.846426228393E-01 -1.523795426926E-02 -5.197486392155E-01 -2.434490558374E+00 4.162789545657E-01 2.644021772365E+00 1.365030091671E+01 9.607642951637E-01 -2.411905278112E+00 1.077590836539E+01 -5.260531017817E+01 -8.333375509406E+01 1.535800742300E+02
 -1.216382728239E+03 4.417631394817E+02 3.596871154421E+00 -4.613442320406E+02 -1.419777580859E+00 -1.357537274514E+00 4.224015578381E-01 6.848341876320E-01 5.186709507329E-01 -2.113495989328E-01 1.198346153829E+00 -4.657616998116E-01 -1.389174776115E-01 6.021199326745E-01 1.796074150102E-01 2.808839783374E+03
 4.349456507314E+02 -7.313647129064E+02 -6.877815923816E+00 3.095451694127E+00 -1.429572655289E+03 -1.417552555365E+01 -3.178732480645E-01 -9.182181691861E-01 8.069156021034E-01 2.649010349665E+00 -2.877980141425E+00 -3.540814044353E-01 2.934157203103E-01 -1.130537745331E+00 2.922454221016E-01 1.109712570235E+00 2.773506959398E+03
 1.145510459442E+00 -3.294816470702E+00 -8.127987957861E+01 -1.036753775539E-01 -2.086699867041E+01 -8.366110509771E+01 -9.218984409075E-02 9.243395543130E-01 6.718795128965E+00 5.038891681379E-01 1.309558250103E+00 -8.738285564990E+00 1.241781416074E-01 6.862794692732E-01 7.038579768126E-01 1.661824687161E+01 3.569161065092E+01 1.926055423364E+02
 -1.201083442376E+03 -4.134447568108E+02 7.968013349962E+00 1.135332912686E+00 1.269192834185E+00 1.201723117318E+00 -1.235409997921E+03 4.420761228373E+02 1.235458729427E+01 -4.668061064736E+02 -4.885724245505E+00 7.898854323302E+00 -1.512181745939E-01 8.707954272578E-01 1.417410734333E-01 -1.908157604876E+01 -3.296659739651E+01 3.743122223949E-01 2.789163666459E+03
 -4.102696750932E+02 -6.933145487975E+02 5.223325901534E+00 -2.595608574670E+00 5.283094147763E-01 -3.461414520194E-01 4.494140859393E+02 -7.339659447400E+02 -4.632845895427E-02 -1.027812159073E+01 -1.458578629215E+03 1.938404067859E+01 -3.280275859945E-01 7.522110725187E-01 -1.188296008754E+00 3.377023258367E+01 5.821050298908E+01 -1.692370849181E+00 -2.474667980311E+01 2.769566304033E+03
 1.133604555665E+01 5.825056753937E+00 -7.925219712897E+01 -8.933551022482E-01 -7.134158894059E-01 -1.305081329652E+01 9.025365438010E+00 3.160566266298E+00 -8.081979384201E+01 1.051000818481E+01 1.642185596038E+01 -8.197647149388E+01 5.154571255306E-01 1.762126008136E+00 -9.721779103861E+00 8.084846942575E-01 1.244947544744E-01 9.907990199179E+00 -2.746220027570E+01 -2.342317472732E+01 1.924751870710E+02
 -2.997376995259E-01 1.420969356629E+00 1.021715570896E+00 -1.215800270415E+03 -4.243421045531E+02 1.240999109059E+01 1.295058739220E+00 -2.106519209311E+00 1.050678642114E+00 -1.200579578835E+03 4.329269117066E+02 3.697689148573E+01 -6.722429039486E-01 -1.136583480755E+00 3.148240087108E-01 3.651277466413E+01 -2.742526977087E+00 -6.651619511325E-01 3.885685280110E+01 1.696641507713E+00 -9.438935351104E-01 2.792919208844E+03
 -2.279806865292E+00 2.165739670419E-01 6.827157878032E-02 -4.161239124567E+02 -6.998354739792E+02 5.233748865013E+00 1.217800318876E+00 -4.725458885923E-01 -7.690999722835E-01 4.459384555207E+02 -7.409202959492E+02 -1.222789919346E+01 -1.149039922486E+00 2.919739540841E+00 -1.347390930817E-01 -6.693952149920E+01 6.159759156390E-01 1.889669103328E+00 6.750697257061E+01 3.861216302335E+00 -2.332468312787E+00 2.130485949262E+01 2.775172503518E+03
 -6.588140224667E-01 -8.826755653636E-01 -1.143694112890E+01 2.210778430058E+01 1.031422678994E+01 -7.281867217648E+01 -7.183933900419E-01 -7.420313912766E-01 2.693605074945E-01 2.954689061820E+01 -6.961994684304E+00 -8.755661856059E+01 2.200003742285E-01 5.439572077366E-01 3.494298853314E+00 -2.972615814846E+00 6.589304769567E-01 6.184238741027E+00 -7.801450590137E-02 7.350463048968E-01 6.988418389578E+00 -6.467558586043E+01 -3.020826380877E+01 2.084831227755E+02
 3.973858498391E-01 -1.766374659872E-01 1.458857116663E-02 7.393217128991E-01 4.361454403643E-01 3.074067060870E-01 -1.234505716510E+03 -4.411791071292E+02 2.597977431694E+01 -9.974045973871E-01 2.280650330216E+00 8.902146032731E-02 -5.721920514484E+02 -8.601599709881E+00 9.575698685061E+00 -2.335512653522E-01 4.614852544614E-01 -2.023552468567E-01 -2.163592880264E+01 -3.674552127711E+01 1.554250026975E+00 -1.173913947507E-01 -2.937191106572E-01 5.437340194398E-01 2.599541748901E+03
 1.118017079560E+00 -3.233576457563E-01 -7.189904700547E-01 1.562367685590E+00 -5.373439357827E-01 8.820912292015E-01 -4.558577142061E+02 -7.572441043797E+02 1.967874574005E+01 -1.030176700185E+00 3.921738854917E+00 1.558636529875E-02 -2.181878553373E+01 -1.813044258399E+03 5.210565285952E+01 -5.163835397970E-01 9.316322724222E-01 -1.065781270498E+00 3.451745410606E+01 5.942242547413E+01 -3.929170480688E+00 9.807360864998E-01 -1.661761099238E+00 1.497936269069E-01 1.855608525180E+02 3.018888059207E+03
 2.823557735431E-01 3.267559025043E-01 1.251314108460E+00 9.973629970656E-01 2.544460873491E-01 1.133226866479E+01 2.888624165229E+01 1.905046914929E+01 -8.204800221471E+01 9.849579149616E-01 -2.204561815113E+00 -1.446324644950E+01 1.099638231764E+01 4.966030770786E+01 -7.415004812415E+01 -7.071814682989E-02 -9.177797081054E-01 -2.612462583088E+00 -1.462707230005E-01 -2.462950957068E-01 7.110818307528E+00 -1.493072654682E+00 1.243008160065E+00 6.847131024951E+00 -4.781873670891E+01 -7.542703442801E+01 1.620362891910E+02
 5.113011989901E-01 -1.787892318630E-01 -8.417216768018E-02 -2.212574368029E+00 5.096560447942E-01 2.213201293519E-01 -8.014082624125E-01 1.057931817311E+00 5.179933951170E-01 -1.236208226979E+03 -4.298288989549E+02 4.694535427489E+01 -1.254617251261E+03 4.655199093115E+02 1.684905781492E+01 1.138267204435E-01 1.649894932544E-01 -2.066946253333E-01 3.841152315135E+01 -6.925899087950E-01 -2.731027413129E+00 -1.974194842236E+01 -3.092393697623E+01 2.533691943384E+00 5.215590977551E+01 -1.530751593457E+00 -5.756019860967E-01 2.855788347012E+03
 5.648173130364E-01 -2.665983093320E-01 -8.048231650574E-01 5.724455282505E+00 -4.581882574830E+00 -3.596587450578E-01 1.866879760403E+00 4.356694198170E+00 -1.491482178586E+00 -4.315540746506E+02 -7.129934626527E+02 3.154373556485E+01 4.544675345876E+02 -7.767250296327E+02 1.186010685289E+01 -1.057484331081E+00 1.946256944137E+00 -1.029438558091E+00 -6.909784082646E+01 5.774275829084E-02 2.259216531742E+00 3.784613371366E+01 5.193005414488E+01 -5.564679607350E+00 8.210241485243E+01 -6.235006766848E+00 5.350133329201E-01 -3.473963873372E+01 2.861855397396E+03
 8.343215276324E-01 5.303584526711E-01 3.434832631439E+00 -1.066875492358E+00 1.071841058431E+00 8.643610205241E+00 -9.938258564983E-01 -1.267032225357E+00 -1.200644778835E+01 5.058082677071E+01 2.957004437309E+01 -8.871855576433E+01 1.537348159185E+01 1.253972785427E+01 -7.757676711897E+01 3.493679675461E-01 -9.426635091133E-01 -6.678814749137E-01 -1.158943209768E+00 4.934553548605E-01 8.573027160390E+00 1.757650967400E-02 2.921466636334E+00 1.216795000873E+01 -2.561129329625E+00 5.181632882120E-01 1.355901140758E+01 -7.501571899404E+01 -1.032779367019E+02 1.918529604263E+02
 -1.807860071936E-01 8.691749800111E-02 4.326675235215E-01 -5.306843641493E-01 1.791273267330E+00 -6.526975632234E-01 -3.011815844703E-01 -9.834079636819E-01 9.816727997956E-01 9.908729130869E-01 -1.719486570086E+00 6.535237989374E-01 2.938738589764E-01 -1.318234786388E+00 3.551706398665E-01 1.909343731780E-01 -4.294036786326E-01 6.449643286483E-01 -2.202388117637E-02 3.213378590526E-01 4.165424058411E-01 -1.494242781528E+00 1.452998081696E+00 -2.717111296931E-01 4.167477209412E-01 1.069923675500E+00 -1.390962277571E+00 1.388345985688E-01 2.087324002267E+00 -6.279332001024E-01 2.803940908327E+03
 -4.317528091719E-01 1.231325121222E-01 3.512132916945E-01 9.552505547636E-01 -1.266442073968E+00 -1.019472007357E-01 1.264678158772E-01 -1.486404610378E-01 2.681135578769E-04 3.707678780696E-01 -2.076299582744E-01 -2.514234284260E-01 -2.196667262691E-02 5.437070053676E-02 -6.907597202821E-02 -3.490806474875E-02 4.508534539829E-02 3.499187479140E-01 5.392974640441E-02 3.423301718503E-01 9.831145006887E-02 -6.080752633829E-02 -1.795510652638E+00 -4.937416769747E-02 1.176053638832E-02 1.399991602101E-02 6.100877111730E-02 1.810059167415E-01 -5.301868922856E-01 2.886869447429E-01 1.261030665710E+00 2.798462641313E+03
 -1.341352057322E-01 -1.436895435881E-01 -2.583017666700E-01 -4.375555203025E-01 1.358216580748E-01 3.631914594028E-01 -2.325289039426E-01 -1.513446674572E-01 -3.370580787825E-01 -1.585291854009E-01 1.263484001512E-01 1.250823090616E+00 -2.445713113280E-02 7.417649190021E-02 -2.511012465761E-01 1.741064485754E-01 3.599185757534E-02 4.196181558652E+00 -5.507581913564E-03 2.922460942956E-02 -3.686441960976E-01 1.994360327559E-01 2.135134089517E-01 -1.416862169415E-01 1.668491460705E-01 1.908234799716E-01 3.664581561837E-02 -3.674636798833E-03 1.290407703776E-01 -1.655503386060E-01 1.492197330560E+01 3.855696742335E+01 1.946836565261E+02
 3.214405806468E-01 8.944296255619E-02 -4.791564694018E-01 2.273852708093E+00 -8.691212514740E-01 8.597488353897E-01 7.188800766246E-01 1.128289822339E+00 -7.111435633678E-01 -3.021576743482E-01 1.071927025309E+00 -2.136516689492E+00 -4.176908032348E-01 1.408442855350E+00 -6.274354653515E-02 -3.227386668961E-01 1.429808530409E-01 -4.695574775438E-01 -2.056045582647E-01 -1.519057848546E-01 -2.051357585068E-01 9.106805640962E-02 -1.855589179389E+00 7.666120462012E-01 -6.737349266065E-01 -1.448721094699E+00 1.461130537892E+00 2.709002356950E-03 -2.458436823598E+00 7.963653081144E-01 4.142312823825E+01 7.103587318168E+01 2.561073248010E+00 2.786970099564E+03
 -1.071999263913E+00 2.768118687907E-01 -3.380840445773E-01 3.992143734320E+00 -3.318365294768E+00 -2.091130150599E-01 2.082115105023E-01 -1.592995971379E-01 -7.587010298779E-01 8.474659812114E-01 -3.871510562820E-01 -3.657959741823E-01 -3.107326430365E-01 9.075184014240E-01 -3.602270732041E-01 -1.762320114105E-01 1.358488010992E-01 -3.174496288050E-01 4.782734984711E-03 1.026842925075E+00 -3.496178739082E-01 3.065576340674E-03 -5.540424756446E+00 -5.116245570228E-01 1.522184700636E-02 -4.044247668513E-01 8.222482730745E-01 5.007884167110E-01 -2.455619269246E+00 7.486835600926E-01 -3.451866605426E-01 -2.358503909181E+00 4.862086229869E-01 2.834562336168E+02 2.857223266597E+03
 3.800762473182E-01 2.838352748335E-01 -2.063667753918E+00 5.027735732355E-01 3.158826120408E-01 7.189262323856E+00 -2.419017639180E-01 -4.070544823303E-01 -3.380429523481E+00 4.099232353347E-01 -7.929077273666E-01 -2.941343078787E+00 1.179393817520E-01 -3.683008382940E-01 -9.339831669135E-01 3.684224070066E-02 -6.793349166362E-01 -1.589668217318E+00 -2.853232085760E-02 -1.924678104927E-01 -1.759019912746E+00 -3.479840095342E-01 6.339483301349E-01 4.498442332808E+00 9.686785938521E-02 4.760765363695E-01 5.132402446665E+00 -9.080334877727E-02 5.382063285002E-01 1.874373040607E+00 7.417349632177E-01 1.694749789835E-01 1.090093045471E+01 2.532273044208E+00 1.056923230754E+02 1.572433324312E+02
 -1.927877681454E+01 -3.442905894855E+01 -8.637522214670E-01 3.556868372678E+01 2.009575589903E+00 2.954965195596E+00 -3.880206772320E-01 -2.048304745448E-01 -1.049344395139E-01 -6.605648824465E-01 3.785204199859E-01 6.571372006927E-01 3.227420611851E-01 -9.396392976902E-01 -2.805926486087E-02 -1.248150118130E+03 -4.399492550789E+02 -1.844946857479E+01 9.265082218961E-02 -8.616962750966E-01 -3.440690570807E-01 1.358835563359E-01 4.775607648865E+00 7.693323424252E-01 1.037470100097E-01 6.556420247089E-01 -3.132000617615E-01 -5.289694651959E-01 2.450390669835E+00 -6.622266400540E-01 -1.968355667327E+01 3.466195779051E+01 -3.502867861802E-01 4.781596852538E-01 1.717074229742E+00 -3.615594917515E-01 2.784896601367E+03
 3.493163941163E+01 6.000927116637E+01 2.301191081282E+00 -6.468921751535E+01 -3.001119100705E+00 -2.355423736998E+00 7.256152828527E-01 6.136183780249E-01 -1.962033777460E-01 1.807822791870E-01 6.757226338125E-01 -2.436073583908E-01 -4.808364834820E-01 1.425482999979E+00 -2.340595193821E-01 -4.431754634353E+02 -7.277002389292E+02 -1.273280748255E+01 -1.633536293809E-01 5.493103640071E-01 -1.452587846207E-01 -2.765118678373E-01 -4.615864294430E+00 -2.562461528044E-01 -4.150965510833E-01 -1.123792756588E+00 3.544412237802E-01 3.713762695171E-01 -2.972055590847E+00 8.084061151847E-01 -3.197271817346E+01 5.764901160400E+01 -4.690460419229E-01 -7.896042067502E-01 -1.577917686389E+00 1.600094428174E-01 2.874314152483E+01 2.799832187437E+03
 4.616002408917E-01 5.986344292855E-01 9.741122872244E+00 -1.238447001844E+00 4.779816251388E-01 8.928701183662E+00 1.149755521847E-01 3.189260100580E-01 3.057938364814E-01 -2.403622852527E-01 1.155643136548E-01 -2.091655622651E-01 -1.097012920216E-02 1.107146869898E-01 1.204624622232E-01 -1.883427873172E+01 -1.383032533667E+01 -8.294244760073E+01 -1.190314093263E-01 3.816431712650E-02 4.720650041656E+00 4.197137391536E-01 2.732499806536E-01 4.427024076931E+00 -1.089933654671E-01 -2.267702922167E-01 -2.691350161065E-01 6.059242896582E-03 -2.390178007493E-01 -2.788718802812E-02 -3.234547716633E-01 6.959551840065E-01 8.771009449627E+00 -1.560750029135E-01 8.398383452376E-02 -5.436567443260E-02 3.255245724659E+01 2.629622225889E+01 1.920958669236E+02
 -3.667569162813E+00 1.171038897184E+00 1.560389356426E-01 -6.672604253552E+00 -3.814932489806E+01 -4.428489268955E+00 2.759579304097E-01 -2.207988819578E+00 6.878534465795E-01 4.861879722085E+00 -4.861970237419E+00 1.321197480504E-01 -4.102061990358E-01 1.859965035314E-01 1.419329871288E-02 -4.663590068371E-01 -1.200451754746E+00 3.758349410944E-01 -2.868536585931E-01 3.899593174309E+00 4.502461096170E-01 -3.449746553657E+00 -1.397409013130E+01 -3.003824641016E+00 8.437098176944E-01 6.746979078679E-01 -1.346381915259E+00 2.162812938374E+00 -3.698680103516E+00 8.919084526945E-01 4.042419193870E+01 -7.058496222064E+01 -1.171917271753E+00 -2.455870905962E+01 3.515311070716E+01 4.242190695722E-01 4.320327517569E+01 6.428657093410E+01 2.361952806451E+00 2.770917233129E+03
 -2.699002370047E+00 1.108156112877E-01 -3.732187052761E-01 4.255967118478E+01 5.145798899034E+01 -1.789800386090E-01 7.894239546174E-01 8.319914917541E-01 -4.016811011271E-01 9.328868830250E-01 7.858695471362E-01 -6.148068182117E-01 -9.596276112641E-01 3.214843242160E+00 -5.189720457989E-01 3.488780587899E-01 1.698036882932E+00 -1.889809409833E-01 3.073855951613E-02 2.196037514033E+00 -3.048737082561E-01 6.296404733198E-01 -1.326555556296E+01 -2.442956283522E+00 -2.186305991756E-01 -2.132221883031E+00 1.350365345812E-01 1.296135040577E+00 -7.989995496480E+00 1.528673852458E+00 2.277960783678E+00 -1.569853678391E+00 -1.348261421527E-01 -4.441406134694E+01 6.820898238427E+01 2.862492638695E+00 4.143783848312E+00 -4.484500442139E+00 1.410297645827E-01 -4.902212779057E+01 2.748396172394E+03
 8.698482914539E-01 5.501208320590E-01 -1.747369660153E+00 1.360902826736E+00 1.053555814054E+00 1.686631008553E+01 -1.024710121498E-01 -1.332995065067E+00 -2.873096512716E+00 1.887111816280E+00 -3.668527329749E+00 -6.117911735302E+00 4.647032835224E-01 -2.116806767554E+00 -2.891203005281E-01 -6.208224623273E-01 -1.273616807301E+00 -1.004248839673E+01 -3.711576693235E-04 -5.253373144204E-02 -1.093143724130E+00 -2.983159022254E+00 2.023295542013E+00 1.028647452559E+01 6.016711572615E-02 1.314343518480E+00 5.543730190456E+00 -3.439634088467E-01 3.206931252718E+00 2.033760172080E+00 -2.183235570103E+00 -4.765522485518E-01 8.389239114558E+00 1.388749343633E+00 4.239861147353E+00 1.596336070155E+01 9.400441530063E-01 2.990808659656E+00 8.962608062754E+00 -1.842441085154E+01 7.015645133732E+01 2.004613101636E+02
 -6.108708596062E-01 9.980305316949E-02 6.689726690083E-02 -1.188509831689E-01 -6.112860951279E-01 -1.376154224908E-01 -5.231053682934E-01 -1.206235166271E+00 1.161218739604E-02 8.078900848954E-01 -1.550449820184E+00 5.873951961408E-01 2.940313940720E-01 -1.141601584044E+00 -5.617598334467E-02 2.176141640249E-01 -2.981510635781E-01 1.325056014654E-01 2.349360602339E-01 5.707730702836E-01 -6.725704442353E-03 -2.739227026895E-01 -5.759194092774E-01 -2.160049827202E-01 5.713819027961E-01 1.243386945720E+00 -2.139714923329E-01 2.019937996844E-01 1.460729294950E+00 -6.912187096878E-02 -1.231214074005E+03 4.331516343713E+02 -7.559351087325E-01 -5.039377277864E+02 -1.662649364302E+01 -1.933487983042E+00 1.680688418024E-01 1.818897327416E-01 9.427396419399E-02 -1.385032606030E+00 -3.786302577255E-01 -7.146846761457E-01 2.840337189338E+03
 6.865777531047E-01 -1.589403510734E-01 9.580621915706E-02 -3.260044065868E+00 2.730691531261E+00 2.220321963183E-01 -4.863362140140E-01 -3.581931378643E-01 6.299536983950E-01 -4.216667596341E-01 -3.426494399263E-01 5.335188626301E-01 4.099938646287E-01 -1.249287922971E+00 3.081181137175E-01 2.096652301733E-01 -3.401039188354E-01 -4.714580335929E-02 8.078968285665E-02 -6.887930847878E-01 2.162265027700E-01 -3.702857828984E-02 4.773240791132E+00 1.343133507515E-01 2.462718152090E-01 8.540168983411E-01 -7.739960200619E-01 -3.918233081388E-01 2.786601608999E+00 -7.483099942055E-01 4.339206209706E+02 -7.296697472836E+02 -1.011310617641E+01 -2.551031508304E+01 -1.532745768442E+03 -4.987478684539E+01 -1.579037740960E+00 1.243148271446E+00 -2.993478377251E-01 3.907659889979E+00 4.659404940283E+00 -7.978372390908E-01 3.285411396249E+01 2.887859439870E+03
 -7.874370616023E-01 -4.450149769087E-01 4.562844067688E+00 -8.541780810757E-01 -1.325857834919E-01 -1.497302733420E+01 7.762673366057E-01 1.513751805472E+00 7.477455151927E+00 -9.353381934286E-01 2.124597509493E+00 4.444828785850E+00 -1.820215358966E-01 9.434254658358E-01 2.229463895418E+00 6.759724028902E-02 1.064666583736E+00 3.735731067400E+00 -3.296662258966E-02 9.213355682632E-02 4.066624701192E+00 7.734237460578E-01 -1.344828265536E+00 -8.775096530342E+00 -3.891707183869E-01 -1.516167876798E+00 -1.064961358570E+01 2.314667165868E-01 -1.968779092403E+00 -3.495411137837E+00 3.485643785466E+00 -1.040822021106E+01 -8.563075321884E+01 -2.560024799559E+00 -4.751886239348E+01 -8.517774141058E+01 -1.772402931493E-01 -4.990913838152E-01 4.860017277728E+00 1.501482320414E+00 6.139257043761E-02 -1.710401525106E+01 1.726796937538E+01 7.686730666959E+01 2.008473253531E+02
 -8.044607011814E-01 -9.222265089524E-02 3.664506668907E-01 1.039235558128E+00 -2.962526879267E+00 -1.863985334274E+00 1.402880345483E-01 9.189867700469E-02 -1.465748011021E-01 7.322546126924E-02 4.471512418950E-01 2.824312475114E-01 -2.071251908754E-01 7.816194897236E-01 -1.825197908451E-01 -1.967296298516E+01 3.544918729204E+01 4.566276921903E-01 1.719016178516E-01 6.150788659466E-01 1.331024842487E-01 5.142326333529E-01 -3.893112897378E+00 -6.454927672880E-01 -1.317246690953E-02 -4.170592833785E-01 1.526274415119E-01 3.508108147233E-01 -1.924696460178E+00 5.016790675218E-01 -1.218919725862E+03 -4.247778320634E+02 -1.147911954504E+01 -7.862872677130E-01 -1.741650502196E+00 3.672339299252E-01 -1.183081542493E+03 4.185992807233E+02 -1.046752549454E+01 -4.708609713773E+02 -1.196699666905E+01 -4.636845938266E-01 -1.928071744462E+01 -3.257902437895E+01 -7.238086354208E-01 2.756467518459E+03
 2.184090344011E+00 -8.277991118841E-01 -1.263720798986E-01 -7.686369669482E+00 5.588189355968E+00 3.388538982252E-01 -4.864782986411E-01 5.832059053314E-01 3.509608271171E-01 -2.475742003891E+00 1.570641646565E+00 -2.236247200979E-01 4.274245371565E-01 -1.079792820395E+00 4.291104022452E-01 -3.300193861966E+01 5.940568969064E+01 -7.173469392355E-01 3.112120070767E-01 -1.872285606595E+00 1.828837715844E-01 1.995281962749E+00 8.932499135757E+00 1.064099291848E+00 -1.094117510586E-01 4.282975614405E-01 -7.043069043706E-02 -9.587774873178E-01 3.287701657011E+00 -8.625323444949E-01 -4.277879958750E+02 -7.125067154882E+02 -1.021665758168E+01 1.262417724064E+00 3.294787668425E+00 1.349291686994E+00 4.189702176024E+02 -7.136089697032E+02 -1.119103963064E+00 6.433396298106E+00 -1.487874439980E+03 -2.757007923966E+01 3.462238359561E+01 5.703758897630E+01 1.281231544765E+00 9.561705600890E+00 2.801764228796E+03
 -3.654605491976E-02 -2.749926119222E-01 5.426269630915E+00 -1.568903974012E-01 1.864057239453E-01 -1.081960979154E+01 5.746478380692E-01 3.643265957188E-01 1.252861595358E+00 -7.806482174389E-03 3.238127602146E-01 -2.147856107886E+00 -3.310825848034E-02 4.792319849598E-02 6.556475284765E-01 -4.564913806878E-01 1.735564921679E+00 1.010490086279E+01 1.906443083502E-01 1.447706290499E-01 1.052888046626E+00 4.937486044257E-02 -7.922555349387E-01 -3.326086615306E-01 -4.112764592820E-01 -5.493772853995E-01 -8.788115563607E-01 2.098883249696E-01 -7.071171254524E-01 1.225251155899E-01 -1.467563427718E+01 -1.179512926387E+01 -8.355634255570E+01 1.655373889552E+00 -9.469284498179E-01 -1.087925347517E+01 -8.493390806718E+00 -2.384529269578E+00 -8.101094822959E+01 -1.913271852604E-02 -2.204009567237E+01 -8.084307315915E+01 3.489846834077E-01 2.182155665493E+00 1.153357652905E+01 2.319578785605E+01 3.712328885183E+01 1.932887612184E+02
 3.630208129585E+00 -1.289460538563E+00 1.944464846551E-01 -1.040020779790E+01 4.260311035970E+00 1.145075720114E+00 6.416196311920E-01 4.551786494199E+00 -2.095472584649E-01 -6.079842602831E+00 8.348803204767E+00 9.059069546481E-01 -2.847905426555E-01 2.820689935330E+00 -9.386772964798E-02 -5.056328131446E-01 2.119034155207E+00 4.151911573671E-02 -2.837920597753E-01 -4.116367118980E+00 -1.679068650850E-01 5.120876965346E+00 1.120578145010E+01 1.391763594396E+00 -1.612671038269E+00 -3.275037126462E+00 3.552702625407E-01 -1.868450305172E+00 -1.299988920085E+00 -8.011185027249E-01 7.926756689959E-01 1.428728035446E+00 2.036233725436E-01 -1.510762886501E+03 -5.292233721623E+02 -1.619052354150E+01 -2.966879710935E+00 2.085313052212E+00 -2.266819158665E-01 -1.260340205422E+03 4.420248042782E+02 2.427585544742E+01 5.090517285531E+01 -3.882661126020E+00 1.627193450605E-01 4.067593537786E+01 -7.432426211417E+00 -1.545809635404E+00 3.062170996035E+03
 -9.846314968062E-01 1.765154732386E-01 5.051045878214E-01 7.401535910121E-01 7.617433576904E-01 -1.462284611433E+00 -5.637590442171E-01 -2.064811446818E+00 9.532504305705E-01 1.907923128686E+00 -3.039735928341E+00 2.447681923099E+00 2.715416445558E-01 -1.748184493530E+00 1.176534126048E-01 4.339009303961E-01 -5.982464742189E-01 5.296173394308E-01 8.666346548791E-02 1.185284489653E+00 2.948102391646E-01 -2.265908354315E+00 -7.146372765060E-01 -1.196548211713E+00 8.549768765861E-01 1.920966890330E+00 -1.894505174381E+00 4.931328221719E-01 2.563154726440E+00 -8.495481458471E-01 -9.492659930091E-01 -4.181881846057E-01 2.641601314989E-01 -5.435714886996E+02 -8.751173016739E+02 -3.762517788338E+01 2.621416988936E-01 2.087302024923E-01 8.348410681672E-02 4.182330451241E+02 -7.188058017212E+02 -3.422568494660E+01 -8.657248646831E+01 2.455167578684E+00 1.398711211544E+00 7.205908895252E+01 -2.290613080599E-01 -2.658914625175E+00 9.917362257796E+01 2.535924562236E+03
 -4.576072733545E-01 -5.142575421893E-01 1.647035904147E+00 -1.098355177631E+00 1.303795737806E-02 -1.591108232252E+00 -3.219776768780E-02 6.459374657734E-02 2.834545206399E+00 -5.680027109080E-01 7.119243882405E-01 4.332182778061E+00 -1.770978630329E-01 3.280271861279E-01 5.916619320529E-01 3.962464873052E-01 9.969417298841E-01 1.100675081975E+00 7.702119903057E-02 3.596255332068E-01 1.223980793827E+00 4.182400290291E-01 -5.018879046634E-01 -4.378418561595E+00 1.336380387775E-01 -1.014038513343E-01 -4.868516979246E+00 1.737420432203E-01 -3.233759743690E-01 -1.975006746704E+00 -7.827720944604E-02 1.544591725566E+00 -9.858942437500E+00 -2.271334357061E+01 -3.937116104542E+01 -7.552204089412E+01 3.858908358224E-01 -7.251211392459E-01 4.546552458711E+00 2.975711011468E+01 -3.140000548263E+01 -8.197605676700E+01 -1.160397443001E+00 4.985217459737E-02 1.682339667090E+01 -5.325041788149E-01 -1.432105876741E+00 9.000936426991E+00 -9.163981751169E+00 1.372213792838E+02 1.623700618267E+02
 -2.688389539478E+00 1.909622429628E+00 -5.808591862275E-01 -1.240907400140E+03 4.313445705197E+02 -1.278686654577E+00 -4.561469283091E-01 -7.080212993688E+00 -1.677078084230E-01 6.072202541436E+00 -1.130712636476E+01 -1.824654300349E+00 5.253237286502E-01 -7.173834556087E+00 -8.668642076464E-04 4.223564487800E+01 -4.404191551342E+00 -1.280168561643E-01 7.143394194329E-01 3.868784607956E+00 -3.373608399754E-01 -1.942945753682E+01 2.974999529785E+01 2.239947473495E+00 1.793490529263E+00 7.176615448050E+00 3.796660211712E-01 3.318198731114E+00 7.057857442290E+00 9.100929631761E-01 -1.361520376484E+00 -2.092472545369E+00 -1.298416837891E-01 2.007442955151E+00 -2.940583780282E+00 1.094123283421E+00 -9.171835114854E-01 -5.913659929187E-01 3.638161731330E-01 -1.167379592524E+03 -3.961105078777E+02 -8.713449966691E+00 -2.651767278439E+00 1.741995098421E+00 -1.713911363103E+00 3.644853716560E+01 7.743170183735E+00 -2.057278025215E-01 -4.978133955584E+00 -3.716304285606E+01 -2.059324915608E+00 2.745568007700E+03
 9.920749638616E+00 -8.844523467774E-01 1.606688613718E+00 4.001431213320E+02 -6.990080250330E+02 6.056170737884E+00 -5.710829704453E+00 -6.226521159286E+00 5.291442286419E+00 -1.806129235615E+00 -1.016270436888E+01 5.625317560839E+00 5.159253452721E+00 -1.800023993872E+01 3.299388931766E+00 7.068904763003E+01 -8.373703720901E+00 1.283622391802E-01 5.495431673914E-01 -9.729746993606E+00 1.617083246685E+00 -4.096767747772E+01 1.209716034598E+02 6.057348044511E+00 3.136147860438E+00 1.274138193483E+01 -5.870035028990E+00 -6.716386231019E+00 4.100646712886E+01 -8.701570801663E+00 -1.146235084552E+01 8.371314440660E+00 -1.006369879001E+00 9.448106084316E+00 2.525159938042E+01 -2.779871182228E+00 -1.822296456272E+01 2.122347654254E+01 -1.520690277774E+00 -3.389471716997E+02 -6.187527358539E+02 -2.370831276033E+01 1.292510577562E+00 -2.283666897808E+01 4.711958745270E+00 -5.038622132284E+01 -3.605261358415E+01 -1.679602552160E+00 -2.085824323896E+00 5.401258968943E+01 3.008455030618E+00 -1.246001044806E+01 2.536296068808E+03
 5.727074539840E-01 -3.656947839061E-02 4.321468607411E+00 -1.031907322537E+00 6.373606414506E+00 -9.846296528715E+01 -3.435793420689E+00 -3.442942924267E+00 9.989358530745E-02 5.682590826639E-01 -6.267955698564E+00 5.979212559756E+00 1.497461156039E+00 -4.359584796974E+00 -1.517831669452E-02 1.796997866017E+00 -4.663707921527E+00 7.919930440966E+00 1.113551474458E+00 1.540709874039E+00 -4.268957238163E-01 -3.429540104414E+00 3.302253240041E+00 9.846002874219E+00 2.562605502288E+00 4.211180523483E+00 -3.913218952924E-01 -1.459792774631E+00 5.624746830213E+00 -5.584565000295E-01 -1.272168732424E+00 -2.123756398318E-01 4.774788339252E+00 1.021262976831E+00 1.000479859317E+00 5.816405646785E+00 -1.724909394608E+00 3.152146832334E+00 -8.759547189182E+00 -1.772576778592E+01 -1.615174022468E+01 -9.182591296334E+01 -7.285793419776E-01 -2.071373751105E+00 -4.443445786526E-01 1.084455438047E-01 7.280989967796E-01 7.287666737366E+00 3.723776226344E+00 6.074254686305E-01 9.856469341815E+00 8.073085255416E+01 5.548903603438E+01 3.361895337287E+02