#BIOSYM hessian 1
@Type: Hessian Update
@Units
 distance: 	A
 energy: 	Kcal/Mol
#header
@natom 67

#label
C1      C2      C3      C4      C5      C6      C7      C8      C9      C10     C11     C12     C13     C14     C15     C16     C17     C18     C19     C20     C21     C22     C23     H24     C25     C26     C27     C28     C29     C30     C31     C32     C33     C34     C35     C36     C37     C38     C39     C40     C41     C42     C43     C44     C45     C46     C47     C48     C49     H50     H51     H52     H53     H54     O55     H56     H57     H58     H59     H60     H61     H62     H63     H64     H65     H66     H67

#element
C  C  C  C  C  C  C  C  C  C  C  C  C  C  C  C  C  C  C  C  C  C  C  H  C  C  C  C  C  C  C  C  C  C  C  C  C  C  C  C  C  C  C  C  C  C  C  C  C  H  H  H  H  H  O  H  H  H  H  H  H  H  H  H  H  H  H 

#matrix
201
 2.784402883055E+03
 -2.327749086188E+01 2.821977058912E+03
 0.000000000000E+00 0.000000000000E+00 0.000000000000E+00
 3.940642556954E+01 6.735449469500E+01 0.000000000000E+00 2.793271814098E+03
 -3.107163236896E-01 -3.537283237471E-01 0.000000000000E+00 -2.270299572374E+01 2.768952499114E+03
 0.000000000000E+00 0.000000000000E+00 0.000000000000E+00 0.000000000000E+00 0.000000000000E+00 0.000000000000E+00
 -2.639739812410E+01 3.403129631345E+01 0.000000000000E+00 -3.016762176376E+00 -1.488094668999E+00 0.000000000000E+00 2.651411872861E+03
 -3.661736553049E+01 5.919317685668E+01 0.000000000000E+00 -1.344949378986E+00 -6.098478532912E-01 0.000000000000E+00 -8.669608286576E+01 2.774048982490E+03
 0.000000000000E+00 0.000000000000E+00 0.000000000000E+00 0.000000000000E+00 0.000000000000E+00 0.000000000000E+00 0.000000000000E+00 0.000000000000E+00 0.000000000000E+00
 3.983888416336E+01 -6.846829236832E+01 0.000000000000E+00 -1.916130377236E+01 3.487697450270E+01 0.000000000000E+00 5.598149015156E+01 7.775069499669E+01 0.000000000000E+00 2.781611456611E+03
 7.474365864372E-01 3.085687425542E-01 0.000000000000E+00 -3.297719267100E+01 5.942979511248E+01 0.000000000000E+00 1.673493665138E+01 6.293557875587E+00 0.000000000000E+00 -2.180949925039E+01 2.834467841650E+03
 0.000000000000E+00 0.000000000000E+00 0.000000000000E+00 0.000000000000E+00 0.000000000000E+00 0.000000000000E+00 0.000000000000E+00 0.000000000000E+00 0.000000000000E+00 0.000000000000E+00 0.000000000000E+00 0.000000000000E+00
 -3.178156829864E+00 -1.490139308457E-01 0.000000000000E+00 -1.616464748166E+00 -5.987485493506E-01 0.000000000000E+00 -1.955047423860E+01 -9.856185615165E+01 0.000000000000E+00 -1.390336255937E+01 4.565764116321E+01 0.000000000000E+00 2.646519289177E+03
 1.719780323979E+00 3.673736327969E-01 0.000000000000E+00 7.309411689936E-01 1.648397688051E-01 0.000000000000E+00 3.165157840735E+01 1.324831479678E+01 0.000000000000E+00 -4.050162190397E+01 5.750674399558E+01 0.000000000000E+00 -1.957737008409E+02 2.936742587438E+03
 0.000000000000E+00 0.000000000000E+00 0.000000000000E+00 0.000000000000E+00 0.000000000000E+00 0.000000000000E+00 0.000000000000E+00 0.000000000000E+00 0.000000000000E+00 0.000000000000E+00 0.000000000000E+00 0.000000000000E+00 0.000000000000E+00 0.000000000000E+00 0.000000000000E+00
 -1.233129380931E+03 4.459576903772E+02 0.000000000000E+00 -4.649988068327E+02 -5.240912942893E+00 0.000000000000E+00 3.767048598570E+00 1.631265030799E+00 0.000000000000E+00 -4.082990737958E-01 -4.141636489285E-01 0.000000000000E+00 1.892697994783E+00 -8.877641773030E-01 0.000000000000E+00 2.823258289757E+03
 4.406300410069E+02 -7.385447339274E+02 0.000000000000E+00 -4.260253854594E+00 -1.433687297658E+03 0.000000000000E+00 1.723927177460E+00 5.860654402726E-01 0.000000000000E+00 -7.564250097206E-02 -3.335901984871E-01 0.000000000000E+00 6.299445716505E-01 -4.525911779320E-01 0.000000000000E+00 -1.814057919379E+00 2.782401251866E+03
 0.000000000000E+00 0.000000000000E+00 0.000000000000E+00 0.000000000000E+00 0.000000000000E+00 0.000000000000E+00 0.000000000000E+00 0.000000000000E+00 0.000000000000E+00 0.000000000000E+00 0.000000000000E+00 0.000000000000E+00 0.000000000000E+00 0.000000000000E+00 0.000000000000E+00 0.000000000000E+00 0.000000000000E+00 0.000000000000E+00
 -1.190106990497E+03 -4.138524225521E+02 0.000000000000E+00 1.791651161743E-01 5.030211351733E-01 0.000000000000E+00 -1.243263417781E+03 4.526111484522E+02 0.000000000000E+00 -4.869902411456E+02 -9.608952780897E+00 0.000000000000E+00 8.803129242387E+00 -4.165251360987E+00 0.000000000000E+00 -2.001828562898E+01 -3.385063731514E+01 0.000000000000E+00 2.814272057075E+03
 -4.151065709846E+02 -7.041028040192E+02 0.000000000000E+00 -5.392230770394E-01 -2.167033198719E-01 0.000000000000E+00 4.234336990816E+02 -7.495966721245E+02 0.000000000000E+00 -7.117752130309E+00 -1.514586382784E+03 0.000000000000E+00 -1.123304738800E+01 5.637571415761E+00 0.000000000000E+00 3.484370636861E+01 5.855864333319E+01 0.000000000000E+00 -2.231933098452E+01 2.839879415184E+03
 0.000000000000E+00 0.000000000000E+00 0.000000000000E+00 0.000000000000E+00 0.000000000000E+00 0.000000000000E+00 0.000000000000E+00 0.000000000000E+00 0.000000000000E+00 0.000000000000E+00 0.000000000000E+00 0.000000000000E+00 0.000000000000E+00 0.000000000000E+00 0.000000000000E+00 0.000000000000E+00 0.000000000000E+00 0.000000000000E+00 0.000000000000E+00 0.000000000000E+00 0.000000000000E+00
 2.617629516254E-01 8.959457697986E-03 0.000000000000E+00 -1.219956040284E+03 -4.217677492438E+02 0.000000000000E+00 5.919610006927E+00 2.504135352994E+00 0.000000000000E+00 -1.225932439200E+03 4.374843659190E+02 0.000000000000E+00 3.214615022700E+00 -1.499673022599E+00 0.000000000000E+00 3.730429452198E+01 -2.384974026669E-01 0.000000000000E+00 4.080204473965E+01 1.001488700900E+00 0.000000000000E+00 2.806335030574E+03
 4.255772263864E-01 5.438720559639E-02 0.000000000000E+00 -4.241870029563E+02 -7.083426066542E+02 0.000000000000E+00 7.567746253468E+00 3.188836627262E+00 0.000000000000E+00 4.354573156470E+02 -7.330594632886E+02 0.000000000000E+00 3.756222514908E+00 -1.553912726625E+00 0.000000000000E+00 -6.692775023565E+01 2.359270811114E-01 0.000000000000E+00 6.912712167154E+01 1.111371113659E+00 0.000000000000E+00 4.753180416178E-01 2.806704223289E+03
 0.000000000000E+00 0.000000000000E+00 0.000000000000E+00 0.000000000000E+00 0.000000000000E+00 0.000000000000E+00 0.000000000000E+00 0.000000000000E+00 0.000000000000E+00 0.000000000000E+00 0.000000000000E+00 0.000000000000E+00 0.000000000000E+00 0.000000000000E+00 0.000000000000E+00 0.000000000000E+00 0.000000000000E+00 0.000000000000E+00 0.000000000000E+00 0.000000000000E+00 0.000000000000E+00 0.000000000000E+00 0.000000000000E+00 0.000000000000E+00
 1.145146608251E+01 1.492688957249E+00 0.000000000000E+00 4.990543655502E+00 2.137270905292E+00 0.000000000000E+00 -9.502695588794E+02 -3.136402066277E+02 0.000000000000E+00 -2.588358090996E+01 -3.177955508203E+01 0.000000000000E+00 -4.326910047177E+02 -4.962765334571E+01 0.000000000000E+00 -6.362724224616E+00 -3.234526485887E+00 0.000000000000E+00 -4.835970511822E+01 6.856695723164E+00 0.000000000000E+00 -9.796773503318E+00 -1.226512127586E+01 0.000000000000E+00 2.477867749714E+03
 3.217693955231E+00 -2.023275816067E-01 0.000000000000E+00 1.894381346747E+00 6.628761499329E-01 0.000000000000E+00 -3.409091655507E+02 -6.863224044221E+02 0.000000000000E+00 -7.387154378663E+00 -9.524482095189E+00 0.000000000000E+00 3.401074725695E+01 -1.690679751110E+03 0.000000000000E+00 -2.147872432239E+00 -5.380916699195E-01 0.000000000000E+00 2.318086889471E+01 7.262078761365E+01 0.000000000000E+00 -3.351023458691E+00 -4.073773424438E+00 0.000000000000E+00 -2.201221812479E+02 3.041213667945E+03
 0.000000000000E+00 0.000000000000E+00 0.000000000000E+00 0.000000000000E+00 0.000000000000E+00 0.000000000000E+00 0.000000000000E+00 0.000000000000E+00 0.000000000000E+00 0.000000000000E+00 0.000000000000E+00 0.000000000000E+00 0.000000000000E+00 0.000000000000E+00 0.000000000000E+00 0.000000000000E+00 0.000000000000E+00 0.000000000000E+00 0.000000000000E+00 0.000000000000E+00 0.000000000000E+00 0.000000000000E+00 0.000000000000E+00 0.000000000000E+00 0.000000000000E+00 0.000000000000E+00 0.000000000000E+00
 -1.086318064970E+00 -2.934961925517E-02 0.000000000000E+00 -3.466597695909E-01 -2.645744617976E-01 0.000000000000E+00 -1.627937502433E+01 -7.438960336819E+00 0.000000000000E+00 -1.188606548599E+03 -4.146923540050E+02 0.000000000000E+00 -1.353871029938E+03 4.940719135611E+02 0.000000000000E+00 5.190176089676E-01 3.820839460507E-01 0.000000000000E+00 4.048974232064E+01 -4.090883370794E+00 0.000000000000E+00 -1.868916884328E+01 -3.182562754063E+01 0.000000000000E+00 7.878901199587E+01 1.069012396451E+01 0.000000000000E+00 2.883570174404E+03
 -2.671107197563E+00 -2.625183171247E-01 0.000000000000E+00 -1.208000615929E+00 -4.814065386162E-01 0.000000000000E+00 -4.968644555206E+01 -2.099157900453E+01 0.000000000000E+00 -4.025857739460E+02 -6.994366915967E+02 0.000000000000E+00 4.623894201477E+02 -8.037826891255E+02 0.000000000000E+00 1.480987377274E+00 7.065713994454E-01 0.000000000000E+00 -6.210267773468E+01 -8.742004394836E+00 0.000000000000E+00 3.654266233802E+01 6.081417843598E+01 0.000000000000E+00 1.731374958867E+02 2.827685223854E+01 0.000000000000E+00 -1.005043212629E+02 2.820541043462E+03
 0.000000000000E+00 0.000000000000E+00 0.000000000000E+00 0.000000000000E+00 0.000000000000E+00 0.000000000000E+00 0.000000000000E+00 0.000000000000E+00 0.000000000000E+00 0.000000000000E+00 0.000000000000E+00 0.000000000000E+00 0.000000000000E+00 0.000000000000E+00 0.000000000000E+00 0.000000000000E+00 0.000000000000E+00 0.000000000000E+00 0.000000000000E+00 0.000000000000E+00 0.000000000000E+00 0.000000000000E+00 0.000000000000E+00 0.000000000000E+00 0.000000000000E+00 0.000000000000E+00 0.000000000000E+00 0.000000000000E+00 0.000000000000E+00 0.000000000000E+00
 -1.943346837686E-01 5.595119471510E-03 0.000000000000E+00 -8.382058195431E-02 -4.502481084487E-02 0.000000000000E+00 -3.690820995101E+00 -1.561496336988E+00 0.000000000000E+00 4.189609897909E-01 4.887588745271E-01 0.000000000000E+00 -1.895453719241E+00 9.877082540857E-01 0.000000000000E+00 1.058517130283E-01 5.337932890836E-02 0.000000000000E+00 4.465157494466E-01 -7.139750055762E-01 0.000000000000E+00 1.832992601380E-01 2.349018481950E-01 0.000000000000E+00 6.590150858249E+00 2.109478298578E+00 0.000000000000E+00 -5.004134517323E-01 -1.516359990107E+00 0.000000000000E+00 2.810796700850E+03
 -4.237545235466E-03 9.099515060682E-03 0.000000000000E+00 -1.723042134608E-02 5.533534035459E-03 0.000000000000E+00 -2.087951345903E-01 -5.488818899090E-02 0.000000000000E+00 2.037110583762E-02 4.480010601854E-02 0.000000000000E+00 4.667824151703E-05 8.846646891992E-02 0.000000000000E+00 1.955811207859E-02 -2.584357514886E-03 0.000000000000E+00 2.893034100641E-02 -3.017044212900E-02 0.000000000000E+00 6.501029578999E-03 1.544812251991E-02 0.000000000000E+00 6.655873830786E-01 1.044062508503E-01 0.000000000000E+00 -9.779292415141E-02 -9.714855472728E-02 0.000000000000E+00 2.076166477066E+00 2.801940713003E+03
 0.000000000000E+00 0.000000000000E+00 0.000000000000E+00 0.000000000000E+00 0.000000000000E+00 0.000000000000E+00 0.000000000000E+00 0.000000000000E+00 0.000000000000E+00 0.000000000000E+00 0.000000000000E+00 0.000000000000E+00 0.000000000000E+00 0.000000000000E+00 0.000000000000E+00 0.000000000000E+00 0.000000000000E+00 0.000000000000E+00 0.000000000000E+00 0.000000000000E+00 0.000000000000E+00 0.000000000000E+00 0.000000000000E+00 0.000000000000E+00 0.000000000000E+00 0.000000000000E+00 0.000000000000E+00 0.000000000000E+00 0.000000000000E+00 0.000000000000E+00 0.000000000000E+00 0.000000000000E+00 0.000000000000E+00
 -2.862474381362E-02 -6.702462039681E-03 0.000000000000E+00 -1.632351244091E-02 -1.502024076973E-02 0.000000000000E+00 -6.011558806310E-01 -2.703581864341E-01 0.000000000000E+00 7.221729234965E-02 7.976555278598E-02 0.000000000000E+00 -3.590856238522E-01 1.172141827145E-01 0.000000000000E+00 1.656354023144E-02 1.490482390045E-02 0.000000000000E+00 1.030583162235E-01 -1.219003221296E-01 0.000000000000E+00 3.101160524579E-02 3.181170694550E-02 0.000000000000E+00 8.798320328459E-01 3.339359947394E-01 0.000000000000E+00 -4.392317034647E-02 -2.318731312996E-01 0.000000000000E+00 4.134431393659E+01 7.187537784220E+01 0.000000000000E+00 2.781320567411E+03
 2.631962737008E-02 2.221852795206E-03 0.000000000000E+00 1.205911994215E-02 5.151860589309E-03 0.000000000000E+00 4.493320550914E-01 1.949154469851E-01 0.000000000000E+00 -4.593018749608E-02 -5.374671572119E-02 0.000000000000E+00 2.490069424922E-01 -1.272051820666E-01 0.000000000000E+00 -1.515782935942E-02 -7.653218289288E-03 0.000000000000E+00 -4.888707654936E-02 8.939845360430E-02 0.000000000000E+00 -2.296164238004E-02 -2.915814641140E-02 0.000000000000E+00 -7.643862069284E-01 -2.712852970295E-01 0.000000000000E+00 5.142682775062E-02 1.833556675180E-01 0.000000000000E+00 -8.729564484518E-01 -1.530319845902E+00 0.000000000000E+00 2.781322277242E+02 2.860950976852E+03
 0.000000000000E+00 0.000000000000E+00 0.000000000000E+00 0.000000000000E+00 0.000000000000E+00 0.000000000000E+00 0.000000000000E+00 0.000000000000E+00 0.000000000000E+00 0.000000000000E+00 0.000000000000E+00 0.000000000000E+00 0.000000000000E+00 0.000000000000E+00 0.000000000000E+00 0.000000000000E+00 0.000000000000E+00 0.000000000000E+00 0.000000000000E+00 0.000000000000E+00 0.000000000000E+00 0.000000000000E+00 0.000000000000E+00 0.000000000000E+00 0.000000000000E+00 0.000000000000E+00 0.000000000000E+00 0.000000000000E+00 0.000000000000E+00 0.000000000000E+00 0.000000000000E+00 0.000000000000E+00 0.000000000000E+00 0.000000000000E+00 0.000000000000E+00 0.000000000000E+00
 -2.042521724810E+01 -3.454900399915E+01 0.000000000000E+00 3.861088372542E+01 -2.013025693591E-01 0.000000000000E+00 -2.492912120029E+00 -1.022891779000E+00 0.000000000000E+00 2.978029471988E-01 3.569366210996E-01 0.000000000000E+00 -1.127263584150E+00 6.390356699922E-01 0.000000000000E+00 -1.244316280056E+03 -4.352681181599E+02 0.000000000000E+00 3.192952373264E-01 -4.208411309485E-01 0.000000000000E+00 1.027666976507E-01 1.586490482797E-01 0.000000000000E+00 4.455228500776E+00 1.261882556151E+00 0.000000000000E+00 -4.108320670799E-01 -9.976614631861E-01 0.000000000000E+00 -1.948470804864E+01 3.387908786548E+01 0.000000000000E+00 -1.642536209038E-02 1.496543074537E-02 0.000000000000E+00 2.776941923217E+03
 3.571770463339E+01 6.074226444089E+01 0.000000000000E+00 -6.789335904513E+01 3.259748677105E-01 0.000000000000E+00 -1.163841889549E-01 1.927611957349E-02 0.000000000000E+00 -8.775147994816E-03 4.791107298168E-02 0.000000000000E+00 1.294045644448E-01 7.886465287233E-02 0.000000000000E+00 -4.400002648170E+02 -7.266721086000E+02 0.000000000000E+00 1.069995252114E-01 1.964638186467E-02 0.000000000000E+00 -2.591997486659E-03 -3.998377029670E-04 0.000000000000E+00 7.715430552707E-01 -3.861827727061E-02 0.000000000000E+00 -1.331709831211E-01 -6.369466452580E-02 0.000000000000E+00 -3.272187896868E+01 5.708817400716E+01 0.000000000000E+00 -7.474981071869E-03 3.870020052873E-03 0.000000000000E+00 1.773285450459E+01 2.807036042392E+03
 0.000000000000E+00 0.000000000000E+00 0.000000000000E+00 0.000000000000E+00 0.000000000000E+00 0.000000000000E+00 0.000000000000E+00 0.000000000000E+00 0.000000000000E+00 0.000000000000E+00 0.000000000000E+00 0.000000000000E+00 0.000000000000E+00 0.000000000000E+00 0.000000000000E+00 0.000000000000E+00 0.000000000000E+00 0.000000000000E+00 0.000000000000E+00 0.000000000000E+00 0.000000000000E+00 0.000000000000E+00 0.000000000000E+00 0.000000000000E+00 0.000000000000E+00 0.000000000000E+00 0.000000000000E+00 0.000000000000E+00 0.000000000000E+00 0.000000000000E+00 0.000000000000E+00 0.000000000000E+00 0.000000000000E+00 0.000000000000E+00 0.000000000000E+00 0.000000000000E+00 0.000000000000E+00 0.000000000000E+00 0.000000000000E+00
 -5.656965058693E-02 -1.320266179228E-02 0.000000000000E+00 -1.892724029419E+01 -3.167937698164E+01 0.000000000000E+00 -7.741022050297E-01 -3.721754530428E-01 0.000000000000E+00 9.598154175038E-02 8.680983049738E-02 0.000000000000E+00 -5.245846659941E-01 1.694787816000E-01 0.000000000000E+00 -8.499046556661E-03 2.989907222804E-02 0.000000000000E+00 8.785808302129E-02 -1.660077340779E-01 0.000000000000E+00 4.644714922858E-02 4.971331277041E-02 0.000000000000E+00 1.073578870737E+00 4.855686334035E-01 0.000000000000E+00 -2.559406436548E-02 -3.040308856401E-01 0.000000000000E+00 3.971441572022E+01 -6.928549379990E+01 0.000000000000E+00 -2.295582085183E+01 4.007135248875E+01 0.000000000000E+00 3.978099984870E+01 6.710766807927E+01 0.000000000000E+00 2.773250531984E+03
 -7.308019927593E-02 -2.315744475361E-03 0.000000000000E+00 3.323788351164E+01 5.566137449134E+01 0.000000000000E+00 -1.874009794840E+00 -7.819398693275E-01 0.000000000000E+00 2.112035366517E-01 2.582345039823E-01 0.000000000000E+00 -8.751168835931E-01 4.748743791181E-01 0.000000000000E+00 1.000799774226E-01 4.581442110049E-02 0.000000000000E+00 2.792839983611E-01 -3.312165299155E-01 0.000000000000E+00 8.011653641839E-02 1.128675912647E-01 0.000000000000E+00 3.450313794100E+00 1.066670295856E+00 0.000000000000E+00 -2.972640676272E-01 -7.483227859343E-01 0.000000000000E+00 -6.883072409446E-03 -6.784709789293E-02 0.000000000000E+00 -4.243178464594E+01 7.401226329723E+01 0.000000000000E+00 -1.796336072730E-02 4.593273780469E-02 0.000000000000E+00 -3.765380652611E+01 2.757971519947E+03
 0.000000000000E+00 0.000000000000E+00 0.000000000000E+00 0.000000000000E+00 0.000000000000E+00 0.000000000000E+00 0.000000000000E+00 0.000000000000E+00 0.000000000000E+00 0.000000000000E+00 0.000000000000E+00 0.000000000000E+00 0.000000000000E+00 0.000000000000E+00 0.000000000000E+00 0.000000000000E+00 0.000000000000E+00 0.000000000000E+00 0.000000000000E+00 0.000000000000E+00 0.000000000000E+00 0.000000000000E+00 0.000000000000E+00 0.000000000000E+00 0.000000000000E+00 0.000000000000E+00 0.000000000000E+00 0.000000000000E+00 0.000000000000E+00 0.000000000000E+00 0.000000000000E+00 0.000000000000E+00 0.000000000000E+00 0.000000000000E+00 0.000000000000E+00 0.000000000000E+00 0.000000000000E+00 0.000000000000E+00 0.000000000000E+00 0.000000000000E+00 0.000000000000E+00 0.000000000000E+00
 1.927074414435E-01 7.360977874945E-03 0.000000000000E+00 9.405417154697E-02 5.133290465958E-02 0.000000000000E+00 3.664640445308E+00 1.566143318430E+00 0.000000000000E+00 -4.164415599647E-01 -4.920819461995E-01 0.000000000000E+00 1.901780025816E+00 -9.609439783582E-01 0.000000000000E+00 -1.140963860031E-01 -5.902681083030E-02 0.000000000000E+00 -4.797351510836E-01 7.159950366983E-01 0.000000000000E+00 -1.819695277232E-01 -2.268345252805E-01 0.000000000000E+00 -6.600204224430E+00 -2.138447961279E+00 0.000000000000E+00 4.859116936295E-01 1.502654182405E+00 0.000000000000E+00 -1.237268656060E+03 4.326189957336E+02 0.000000000000E+00 -5.070829619245E+02 -1.405820988203E+01 0.000000000000E+00 6.767917587997E-02 7.060085628310E-03 0.000000000000E+00 1.889345031723E-02 4.832095200809E-02 0.000000000000E+00 2.842603385415E+03
 -2.857932918711E-02 -6.123754039973E-03 0.000000000000E+00 -1.269331493175E-02 -1.397753713569E-02 0.000000000000E+00 -5.249666762975E-01 -2.482562596223E-01 0.000000000000E+00 5.121547037667E-02 4.985466161451E-02 0.000000000000E+00 -3.379833198811E-01 1.432397539367E-01 0.000000000000E+00 1.610175489699E-02 1.434357253709E-02 0.000000000000E+00 5.952857772135E-02 -1.045071268911E-01 0.000000000000E+00 2.735141661926E-02 3.248578727584E-02 0.000000000000E+00 8.651845520847E-01 3.508933583107E-01 0.000000000000E+00 -3.174563776158E-02 -2.150929304758E-01 0.000000000000E+00 4.347317712518E+02 -7.291680542011E+02 0.000000000000E+00 -2.407088252164E+01 -1.541651545106E+03 0.000000000000E+00 -2.327190344895E-02 -1.274460213652E-02 0.000000000000E+00 2.072811704214E-03 -1.497330806187E-02 0.000000000000E+00 2.934678038000E+01 2.893380937110E+03
 0.000000000000E+00 0.000000000000E+00 0.000000000000E+00 0.000000000000E+00 0.000000000000E+00 0.000000000000E+00 0.000000000000E+00 0.000000000000E+00 0.000000000000E+00 0.000000000000E+00 0.000000000000E+00 0.000000000000E+00 0.000000000000E+00 0.000000000000E+00 0.000000000000E+00 0.000000000000E+00 0.000000000000E+00 0.000000000000E+00 0.000000000000E+00 0.000000000000E+00 0.000000000000E+00 0.000000000000E+00 0.000000000000E+00 0.000000000000E+00 0.000000000000E+00 0.000000000000E+00 0.000000000000E+00 0.000000000000E+00 0.000000000000E+00 0.000000000000E+00 0.000000000000E+00 0.000000000000E+00 0.000000000000E+00 0.000000000000E+00 0.000000000000E+00 0.000000000000E+00 0.000000000000E+00 0.000000000000E+00 0.000000000000E+00 0.000000000000E+00 0.000000000000E+00 0.000000000000E+00 0.000000000000E+00 0.000000000000E+00 0.000000000000E+00
 1.177022626511E-01 2.152879729027E-03 0.000000000000E+00 5.931205389385E-02 5.633243407598E-02 0.000000000000E+00 2.396534855753E+00 1.020823982026E+00 0.000000000000E+00 -2.863381748398E-01 -3.145222135009E-01 0.000000000000E+00 1.243387771393E+00 -5.800940074544E-01 0.000000000000E+00 -1.972742598792E+01 3.443323798848E+01 0.000000000000E+00 -3.065599353828E-01 4.529635004005E-01 0.000000000000E+00 -1.170200131961E-01 -1.525474198939E-01 0.000000000000E+00 -3.998862212900E+00 -1.332466096980E+00 0.000000000000E+00 3.025319097571E-01 9.533522348280E-01 0.000000000000E+00 -1.219874573846E+03 -4.269060056621E+02 0.000000000000E+00 -2.429075331187E-03 -9.902989765465E-03 0.000000000000E+00 -1.175709805949E+03 4.224364376403E+02 0.000000000000E+00 -4.722993304497E+02 -5.952686112366E+00 0.000000000000E+00 -1.974531297113E+01 -3.418564452096E+01 0.000000000000E+00 2.752743245547E+03
 7.532128126810E-02 -2.259374350283E-02 0.000000000000E+00 9.096689035086E-02 2.548729921326E-03 0.000000000000E+00 1.921411118393E+00 7.445789443383E-01 0.000000000000E+00 -2.190510797706E-01 -2.961227620532E-01 0.000000000000E+00 7.720123895808E-01 -5.237931138046E-01 0.000000000000E+00 -3.325805200522E+01 5.814966705097E+01 0.000000000000E+00 -2.837419995905E-01 3.418858720705E-01 0.000000000000E+00 -7.879219859372E-02 -1.189366287397E-01 0.000000000000E+00 -3.790668889786E+00 -1.005225666963E+00 0.000000000000E+00 3.857602502505E-01 7.844532009768E-01 0.000000000000E+00 -4.301542809173E+02 -7.161140817054E+02 0.000000000000E+00 1.786497697683E-02 -6.886421520863E-03 0.000000000000E+00 4.238319163272E+02 -7.137062925674E+02 0.000000000000E+00 3.380317340887E+00 -1.498494998819E+03 0.000000000000E+00 3.423997699963E+01 5.961923584894E+01 0.000000000000E+00 3.435239736269E+00 2.810402101715E+03
 0.000000000000E+00 0.000000000000E+00 0.000000000000E+00 0.000000000000E+00 0.000000000000E+00 0.000000000000E+00 0.000000000000E+00 0.000000000000E+00 0.000000000000E+00 0.000000000000E+00 0.000000000000E+00 0.000000000000E+00 0.000000000000E+00 0.000000000000E+00 0.000000000000E+00 0.000000000000E+00 0.000000000000E+00 0.000000000000E+00 0.000000000000E+00 0.000000000000E+00 0.000000000000E+00 0.000000000000E+00 0.000000000000E+00 0.000000000000E+00 0.000000000000E+00 0.000000000000E+00 0.000000000000E+00 0.000000000000E+00 0.000000000000E+00 0.000000000000E+00 0.000000000000E+00 0.000000000000E+00 0.000000000000E+00 0.000000000000E+00 0.000000000000E+00 0.000000000000E+00 0.000000000000E+00 0.000000000000E+00 0.000000000000E+00 0.000000000000E+00 0.000000000000E+00 0.000000000000E+00 0.000000000000E+00 0.000000000000E+00 0.000000000000E+00 0.000000000000E+00 0.000000000000E+00 0.000000000000E+00
 2.118319784930E-02 6.148591683192E-03 0.000000000000E+00 1.221743975234E-02 8.382738270541E-03 0.000000000000E+00 4.009015006786E-01 1.778176206807E-01 0.000000000000E+00 -5.127917273302E-02 -5.897258631437E-02 0.000000000000E+00 2.465351564672E-01 -5.848789580560E-02 0.000000000000E+00 -1.216346149167E-02 -7.507082572379E-03 0.000000000000E+00 -8.189776479242E-02 8.671143542212E-02 0.000000000000E+00 -2.014521488744E-02 -1.842967066756E-02 0.000000000000E+00 -4.963280876309E-01 -1.994836723376E-01 0.000000000000E+00 2.181380645562E-02 1.475108925959E-01 0.000000000000E+00 2.429696338029E-03 -8.160901549268E-03 0.000000000000E+00 -1.502660384571E+03 -5.305558610380E+02 0.000000000000E+00 1.756979632629E-02 6.322224898439E-03 0.000000000000E+00 -1.280494119403E+03 4.333638458514E+02 0.000000000000E+00 4.911053045458E+01 -1.035676134808E+00 0.000000000000E+00 3.907192996691E+01 2.836725237218E-02 0.000000000000E+00 3.073399341137E+03
 -8.570872397230E-03 3.839823782143E-03 0.000000000000E+00 -1.324474302678E-03 5.592055341808E-03 0.000000000000E+00 -7.400287647559E-02 -1.535310640209E-02 0.000000000000E+00 8.604073013583E-03 1.578352852289E-02 0.000000000000E+00 3.966425150100E-03 4.084926686911E-02 0.000000000000E+00 3.760059232132E-03 -5.157796244639E-03 0.000000000000E+00 -4.146752363361E-03 -1.558138225903E-02 0.000000000000E+00 2.507351994271E-03 7.625983277095E-03 0.000000000000E+00 2.592634586667E-01 3.621010589952E-02 0.000000000000E+00 -3.963693724819E-02 -4.093341765826E-02 0.000000000000E+00 -4.458970745826E-03 -3.278446819631E-03 0.000000000000E+00 -5.403411566607E+02 -8.695670140023E+02 0.000000000000E+00 5.055757667783E-04 6.120197695924E-03 0.000000000000E+00 4.181841321782E+02 -7.229068976169E+02 0.000000000000E+00 -8.567465748750E+01 1.823983477455E+00 0.000000000000E+00 7.217513547500E+01 6.764869494785E-02 0.000000000000E+00 9.252132500796E+01 2.539976765322E+03
 0.000000000000E+00 0.000000000000E+00 0.000000000000E+00 0.000000000000E+00 0.000000000000E+00 0.000000000000E+00 0.000000000000E+00 0.000000000000E+00 0.000000000000E+00 0.000000000000E+00 0.000000000000E+00 0.000000000000E+00 0.000000000000E+00 0.000000000000E+00 0.000000000000E+00 0.000000000000E+00 0.000000000000E+00 0.000000000000E+00 0.000000000000E+00 0.000000000000E+00 0.000000000000E+00 0.000000000000E+00 0.000000000000E+00 0.000000000000E+00 0.000000000000E+00 0.000000000000E+00 0.000000000000E+00 0.000000000000E+00 0.000000000000E+00 0.000000000000E+00 0.000000000000E+00 0.000000000000E+00 0.000000000000E+00 0.000000000000E+00 0.000000000000E+00 0.000000000000E+00 0.000000000000E+00 0.000000000000E+00 0.000000000000E+00 0.000000000000E+00 0.000000000000E+00 0.000000000000E+00 0.000000000000E+00 0.000000000000E+00 0.000000000000E+00 0.000000000000E+00 0.000000000000E+00 0.000000000000E+00 0.000000000000E+00 0.000000000000E+00 0.000000000000E+00
 1.589822919301E-01 1.624744007919E-02 0.000000000000E+00 -1.229078890231E+03 4.447450624734E+02 0.000000000000E+00 2.059205985711E+00 9.335978328874E-01 0.000000000000E+00 -2.365574916145E-01 -2.588874634296E-01 0.000000000000E+00 1.290322340333E+00 -5.177389816736E-01 0.000000000000E+00 4.016823833300E+01 -2.076327775406E-01 0.000000000000E+00 -2.520635797183E-01 4.681418013311E-01 0.000000000000E+00 -2.008807810073E+01 3.549615928014E+01 0.000000000000E+00 -3.298771612854E+00 -1.251832900735E+00 0.000000000000E+00 1.406289961174E-01 8.529573998757E-01 0.000000000000E+00 5.967854255244E-02 2.587753414854E-03 0.000000000000E+00 1.381705141317E-02 -8.676291264765E-03 0.000000000000E+00 3.313509609192E-02 -8.804418808493E-03 0.000000000000E+00 -1.137084271097E+03 -3.911268745847E+02 0.000000000000E+00 -6.600333293446E-02 1.220150468381E-02 0.000000000000E+00 3.688188118839E+01 7.807207435782E-03 0.000000000000E+00 -1.771575168722E+01 -3.270598635334E+01 0.000000000000E+00 2.731698423029E+03
 5.667388256757E-02 1.884838989341E-02 0.000000000000E+00 4.543376068087E+02 -7.397928755823E+02 0.000000000000E+00 1.212657127943E+00 4.632465417631E-01 0.000000000000E+00 -1.718311808921E-01 -2.580458650097E-01 0.000000000000E+00 3.800010239794E-01 -1.131619103620E-01 0.000000000000E+00 6.710823250223E+01 -3.301384762555E-01 0.000000000000E+00 -3.579406938238E-01 1.919967366807E-01 0.000000000000E+00 -3.340332486346E+01 5.938309399903E+01 0.000000000000E+00 -1.886789489857E+00 -5.106827540111E-01 0.000000000000E+00 2.644748016305E-01 3.937437416600E-01 0.000000000000E+00 3.961509223367E-02 -5.955443088206E-03 0.000000000000E+00 7.869941060679E-03 -6.461436872116E-03 0.000000000000E+00 2.566359689555E-02 4.536124931658E-03 0.000000000000E+00 -3.895155545600E+02 -6.709359798557E+02 0.000000000000E+00 -3.650475259780E-02 1.102704020630E-02 0.000000000000E+00 -6.502110733389E+01 -7.565596161084E-02 0.000000000000E+00 3.116055752957E+01 5.756795112454E+01 0.000000000000E+00 -7.909406656814E+00 2.821379487264E+03
 0.000000000000E+00 0.000000000000E+00 0.000000000000E+00 0.000000000000E+00 0.000000000000E+00 0.000000000000E+00 0.000000000000E+00 0.000000000000E+00 0.000000000000E+00 0.000000000000E+00 0.000000000000E+00 0.000000000000E+00 0.000000000000E+00 0.000000000000E+00 0.000000000000E+00 0.000000000000E+00 0.000000000000E+00 0.000000000000E+00 0.000000000000E+00 0.000000000000E+00 0.000000000000E+00 0.000000000000E+00 0.000000000000E+00 0.000000000000E+00 0.000000000000E+00 0.000000000000E+00 0.000000000000E+00 0.000000000000E+00 0.000000000000E+00 0.000000000000E+00 0.000000000000E+00 0.000000000000E+00 0.000000000000E+00 0.000000000000E+00 0.000000000000E+00 0.000000000000E+00 0.000000000000E+00 0.000000000000E+00 0.000000000000E+00 0.000000000000E+00 0.000000000000E+00 0.000000000000E+00 0.000000000000E+00 0.000000000000E+00 0.000000000000E+00 0.000000000000E+00 0.000000000000E+00 0.000000000000E+00 0.000000000000E+00 0.000000000000E+00 0.000000000000E+00 0.000000000000E+00 0.000000000000E+00 0.000000000000E+00