#BIOSYM hessian 1
@Type: Hessian Update
@Units
 distance: 	A
 energy: 	Kcal/Mol
#header
@natom 67

#label
C1      C2      C3      C4      C5      C6      C7      C8      C9      C10     C11     C12     C13     C14     C15     C16     C17     C18     C19     C20     C21     C22     C23     H24     C25     C26     C27     C28     C29     C30     C31     C32     C33     C34     C35     C36     C37     C38     C39     C40     C41     C42     C43     C44     C45     C46     C47     C48     C49     H50     H51     H52     H53     H54     H55     H56     H57     H58     H59     H60     H61     H62     H63     H64     H65     H66     O67

#element
C  C  C  C  C  C  C  C  C  C  C  C  C  C  C  C  C  C  C  C  C  C  C  H  C  C  C  C  C  C  C  C  C  C  C  C  C  C  C  C  C  C  C  C  C  C  C  C  C  H  H  H  H  H  H  H  H  H  H  H  H  H  H  H  H  H  O 

#matrix
201
 2.782222160795E+03
 -2.208555244308E+01 2.818005676072E+03
 1.787921471240E+01 2.055987807338E+01 1.936915069212E+02
 3.902576035299E+01 6.739187214909E+01 2.595958161741E-01 2.784257775343E+03
 -5.583827172117E-01 -9.296163112200E-02 -1.116941149340E+00 -1.933569510715E+01 2.763357595459E+03
 -1.200447919792E+00 -1.456277135497E-01 8.464885411425E+00 1.163437450078E+02 -2.545175591055E+01 1.958173061187E+02
 -1.886728253099E+01 3.452367594826E+01 1.557013131681E+00 -6.006212483176E-02 1.096117649587E+00 -1.100086695985E-01 2.807731975989E+03
 -3.288212489495E+01 5.843817719230E+01 3.770323466625E+00 4.117567928236E-01 9.578329926204E-01 5.328497342609E-01 -4.089907114995E+01 2.817220023865E+03
 -3.044104425660E-01 2.146269796855E+00 8.651213609440E+00 -6.144092141001E-01 -8.021866772576E-01 2.296620891705E-01 -7.005982370688E+01 4.133273556621E+01 1.989392080322E+02
 3.991220353084E+01 -6.834756183554E+01 -2.193540993405E+00 -2.066660697574E+01 3.580663483476E+01 7.732634031702E-01 4.022525588309E+01 7.082333831036E+01 2.611575996762E+00 2.795859579160E+03
 1.838677149449E+00 -2.498326746924E-01 9.103233551856E-01 -3.095077626438E+01 6.044119925850E+01 1.167598111020E+00 -3.908345559144E+00 -4.988747541156E+00 -2.299522982932E-01 -3.068712598298E+01 2.804188315648E+03
 2.545820570546E+00 -4.881799730766E-01 8.015023562554E+00 -2.038730209036E+00 3.186365780276E+00 9.383352053289E+00 -4.231357774511E+00 -4.331230805072E+00 1.209805480915E+01 1.882721259381E+01 4.894732007223E+01 2.100415714437E+02
 -1.524821325110E+00 -2.210765036075E-01 4.831626556445E-01 1.391846611981E+00 8.811470069869E-01 7.446178827723E-01 4.353076611163E+01 -7.269748715036E+01 -3.384569328251E+00 -1.841653630012E+01 4.060315416460E+01 3.638145222264E+00 2.627589000885E+03
 3.674821188713E+00 -1.301830341548E+00 5.895306659876E-01 3.329653287056E-01 3.994300841606E+00 4.498157896478E-01 -1.020714119722E+01 -6.850885479929E+00 -1.161887829211E+00 -4.251534977580E+01 5.100379660378E+01 4.245069004958E+00 -2.054904858991E+02 2.864724402891E+03
 4.540289249553E-01 -2.767672018815E-01 6.736757705086E-01 2.883153303280E-01 1.121927923287E+00 -7.181244257045E-01 -2.597549960683E+00 1.941551573068E+00 9.266619273615E+00 -1.068892291108E-01 1.177940179270E+00 7.787796597565E+00 -9.377024613353E+01 1.077034448985E+02 1.726165340166E+02
 -1.229976450417E+03 4.471920855858E+02 -8.836683072784E+00 -4.629848600937E+02 -8.673403650315E+00 -1.082044458882E+01 -6.264485905174E-01 -5.505953100692E-01 3.166152448619E-01 -2.667179540172E-01 -1.750329019737E+00 -1.989061938453E+00 6.083256232291E-01 -2.447540062615E+00 -1.306053252768E-01 2.819704658437E+03
 4.417167803293E+02 -7.406536362715E+02 2.254155997513E+00 -7.821537324834E+00 -1.432915027170E+03 8.165891638766E+00 1.947344129703E-01 6.839624221823E-02 2.942274328724E-01 -3.351420395073E-01 -1.663211381833E-01 1.257523952132E+00 -1.132595728620E+00 3.846143796103E-01 -1.339535792091E+00 1.769797955212E-01 2.781711731317E+03
 -1.227315581319E+01 4.150802736343E+00 -8.342657950342E+01 -1.444701727847E+01 4.000586777861E+00 -8.131724213482E+01 1.920618785838E-01 -6.451473190512E-02 4.646218658485E+00 9.844688592760E-01 -1.072875418926E+00 -9.076182657699E+00 7.983629485516E-02 -4.392095289070E-01 8.211973801669E-02 4.106773163608E+01 -1.902634047684E+00 1.928024274626E+02
 -1.192654147830E+03 -4.131677586417E+02 -6.076899642997E+00 2.898605928659E-01 -6.752057887335E-01 7.699582640277E-01 -1.254844691621E+03 4.529572773152E+02 3.360397525822E+01 -4.860072784937E+02 -1.702824860547E+01 6.347279611977E-02 -3.577134604002E-01 3.402760567715E-01 -5.662321718253E-01 -1.959696543792E+01 -3.245409647474E+01 -1.281378274301E+00 2.815280233752E+03
 -4.127603691338E+02 -7.001544015355E+02 -1.361724183004E+01 -1.144698262495E+00 -3.704926258404E-01 -1.506836519127E+00 4.538449747680E+02 -7.492523446932E+02 -2.729426520033E+01 -2.163328163247E+01 -1.509867521691E+03 -4.037066804105E+01 2.419055688156E+00 -1.197635673177E+00 2.739602213310E+00 3.499873137910E+01 5.753751237907E+01 -6.594414755330E-02 -2.468310681501E+01 2.843440399158E+03
 -4.824687716441E+00 -9.172524336225E+00 -8.153025266188E+01 -1.121695847901E+00 5.073019888591E-01 -9.807391575465E+00 3.345337925827E+01 -2.238561675375E+01 -8.678549703968E+01 -1.435440832870E+00 -4.816011676928E+01 -8.803113273797E+01 9.978036322885E-01 4.440779990959E-01 -7.491265113921E+00 -3.208200430611E-01 -2.049661413771E+00 9.052034585590E+00 -2.788238298911E+01 7.941411360277E+01 2.002103352847E+02
 1.693382235079E+00 -1.264123391747E+00 -6.174216794414E-01 -1.212517052306E+03 -4.193499801589E+02 -5.048586074179E+01 -3.055913546549E+00 -2.906399820104E+00 -9.164219259445E-01 -1.221224728218E+03 4.380446815035E+02 -1.514258529753E+01 9.336502651956E-01 -1.235163595443E+01 1.519023653146E+00 3.589509481282E+01 -2.487664719298E-01 1.514277580326E+00 4.040527216958E+01 1.261919099720E+00 2.242316546144E+00 2.791773921007E+03
 1.878135233219E+00 -1.269453382870E+00 8.385339521135E-01 -4.244619407576E+02 -7.061323603497E+02 -1.960108494673E+01 -6.501741467346E+00 -4.019500691194E+00 3.363907291049E-01 4.396627296377E+02 -7.370677480825E+02 2.890143513363E+00 3.922029106712E+00 -2.152269972062E+01 -1.047403958256E+00 -6.853064298757E+01 1.369716897303E+00 -2.467567087975E+00 7.054008281940E+01 -1.799137142879E+00 3.431024895393E+00 -2.811280502246E+01 2.790407569130E+03
 2.499697683324E+00 -1.011408801795E+00 -1.122272720620E+01 -4.374658643077E+01 -1.475170344222E+01 -8.302743097656E+01 -1.396994744155E+00 -3.856894734518E-01 8.498024898808E+00 -2.435144527679E+01 7.793558942223E+00 -7.451785393911E+01 1.496316766298E+00 -4.471929500885E+00 2.117786970416E+00 -8.349366615445E-01 2.148314257685E+00 9.150983341798E+00 5.064398495982E+00 -2.463125088081E+00 7.616247607161E+00 8.582790937515E+01 -1.011458430516E+01 2.175794811333E+02
 -4.167744225898E-01 3.296760012225E-01 -8.859841483655E-01 -2.538441228271E-01 -1.213440587405E-01 -2.158296465413E-01 -1.201407998709E+03 -4.018834144276E+02 2.833554805377E+01 -7.124192920763E-01 1.091374937844E+00 3.176403414688E+00 -5.147566454185E+02 8.457902651771E+00 1.421191505619E+01 3.886563591243E-01 -2.348621292313E-01 -2.966541233847E-01 -1.937050192738E+01 -3.447309456673E+01 -4.438223987317E-01 6.675479969881E-01 1.083975212377E+00 8.904857438285E-01 2.773458698814E+03
 -2.482626298215E+00 5.785967011729E-01 -1.123958659998E+00 -1.973398003435E-01 -3.532852271011E+00 -7.156950992167E-01 -4.031856843625E+02 -6.975226034790E+02 3.720741945471E+00 6.805442326121E+00 1.079511819601E+01 1.766538546565E+00 4.690962388105E+00 -1.608802988447E+03 -4.459467796743E+01 1.415223626305E+00 2.442794663291E-01 1.529547947668E-01 3.367107980756E+01 6.076425166864E+01 -2.433476040654E+00 8.578613830832E+00 1.599537815329E+01 2.847482829810E+00 -3.403218396382E+01 2.936856349976E+03
 -3.849199434046E-02 -5.144445641321E-01 4.985619174496E+00 6.465005608383E-01 5.514858518640E-01 2.909426298404E-01 2.609046450883E+01 2.282616078678E+00 -8.514537257153E+01 -3.212352608910E-01 -2.853109393893E-01 -1.188104154850E+01 1.419253714782E+01 -3.843953105632E+01 -7.912641122314E+01 1.122534378356E-02 -3.559501021100E-01 -8.921515838158E-02 1.536076426813E+00 3.268314733796E+00 9.628546433467E+00 -2.982358958230E-01 1.099107907025E-01 -3.191090600661E+00 -7.442260938147E+01 6.026520503202E+01 1.871918293559E+02
 -1.846642188284E+00 1.534762079921E+00 -7.386625759450E-01 -3.301244523161E+00 -2.367245210715E+00 -9.070663146058E-01 2.982547581302E+00 6.495383904196E+00 9.493763964161E-01 -1.213658331770E+03 -3.888065720719E+02 9.682909992307E-01 -1.337887261226E+03 5.146061185184E+02 6.456772589551E+01 1.723794720821E+00 9.348426583033E-02 4.769167555899E-01 4.080149559415E+01 -1.020573298677E+00 -9.827848121634E-01 5.203233654001E+00 -1.909775587966E+01 -5.350868289895E-01 4.918598049191E+01 -2.199883327480E+01 -1.859260334194E+00 2.879090746784E+03
 -1.000113360131E+01 2.668559094948E+00 -1.668576001813E+00 -5.844866793397E-01 -9.281562375762E+00 -1.580133526148E-01 2.401996431508E+01 1.647391971944E+01 1.004577959886E+00 -3.794999536291E+02 -6.587758953479E+02 -1.122623164016E+01 4.622241271835E+02 -7.358878785730E+02 -5.468701686633E+01 6.164498243882E+00 -3.351423734679E+00 5.585299410422E-01 -7.080806532463E+01 3.738438943676E+00 -1.375711452157E+00 6.743116197818E+01 1.099999773201E+02 8.416505596490E+00 7.668132624903E+01 -6.157340514786E+01 -7.362064000724E+00 -1.322035837524E+02 2.627344738232E+03
 -1.144255591255E+00 -2.564457774368E-01 4.063798295782E+00 -3.958817960177E-01 -6.219696179527E+00 3.974389067721E+00 2.354465720858E+00 4.302150664902E+00 -9.465655745924E+00 -1.057190952500E+00 -3.809117754027E+00 -9.761045068362E+01 7.979996448150E+01 -5.220079988238E+01 -9.201897006943E+01 -4.008231978301E-01 3.549557374539E+00 4.317924938130E-02 -2.472878461346E+00 -4.133279265486E+00 8.491948567529E+00 5.942176349119E+00 4.665352719398E+00 8.810801638880E+00 5.084820798364E-01 -6.501772802474E+00 1.093677628708E+01 -1.461804742337E+02 1.727021110743E+02 3.266307574118E+02
 3.275014941000E-02 -2.992508780581E-03 1.416375558831E-01 -7.895250443920E-02 9.299316623854E-02 -4.404890051780E-01 -2.340206126911E-01 -1.344890765534E-01 6.189526288109E-02 -3.096841855032E-01 -1.813135989117E-01 2.011361878448E-01 -1.674838515504E-02 -7.786865010147E-01 -3.077948199386E-01 -1.537722605077E-02 -1.734190791391E-02 7.860623658042E-02 1.162182854831E-01 -1.004793092695E-01 -6.634848872260E-02 -2.169334475233E-01 -4.880950482653E-01 1.131430283505E-01 -6.489565538288E-02 6.641894188083E-01 3.611975610896E-02 4.848667623265E-01 1.493760943369E+00 7.829389601966E-01 2.810145419253E+03
 -3.020468084387E-02 1.642626530273E-02 1.401076424830E-01 1.802683039108E-01 -1.259697573979E-01 -1.024776976443E-01 2.278232908570E-01 9.013932124781E-02 3.112571606540E-02 3.662871310725E-02 2.515441763515E-01 -4.847735277630E-01 -1.040861124106E-02 7.644573969419E-01 2.700094334187E-01 1.217074678508E-02 3.925386821767E-02 4.052700145121E-01 -8.307459888518E-02 2.998745458019E-01 6.525976945157E-02 2.443365910912E-01 3.775497950886E-01 -6.473713725487E-01 -3.139659721306E-02 -7.043667584583E-01 3.087536761123E-01 2.338309096897E-01 -1.655647176313E+00 -4.652798854415E-01 2.633434842663E+00 2.799749348588E+03
 1.092766519531E-01 -1.574452736298E-02 -2.340584075083E-01 -4.604336321660E-01 -7.109536275355E-02 -2.006526543172E-01 -2.288782649300E-02 6.952658679015E-02 2.994392202264E-01 2.079283701689E-01 -1.446204327272E-01 5.960055895742E-01 3.313486442482E-02 -1.093229071401E-01 5.654952423071E-01 6.764711300408E-02 2.842386793358E-01 4.572587939422E+00 1.533223740371E-01 -3.723611269265E-01 6.926041047179E-01 2.963244234183E-01 4.494557500224E-02 1.622033801167E+00 3.091074521175E-01 2.495087957901E-02 -8.665064910838E-01 -1.279550430897E-01 -4.199509562175E-01 -2.762090253595E-01 2.425553878590E+01 -3.832619037211E+01 1.948964899050E+02
 1.337429861435E-02 1.492489277513E-02 4.433185233324E-02 5.505274566938E-02 -1.713436460809E-01 3.604232718439E-01 2.868178648267E-01 1.391250023073E-01 -2.370242959747E-01 3.307974812521E-01 3.089641504227E-01 -1.489270379749E-01 3.700797765850E-01 9.126891936833E-01 -4.964308255845E-02 -1.775518399590E-02 3.081513373948E-02 -4.195942624025E-02 -2.062712949151E-01 1.019198134659E-01 -2.790357351025E-01 1.787060764158E-01 6.404713386042E-01 -4.777636655407E-01 4.786957867648E-04 -7.815293659012E-01 2.229172881948E-01 -1.055365033139E+00 -1.096490253905E+00 -1.116971079993E+00 4.166273504652E+01 7.177445859625E+01 -1.232595800932E+00 2.783370598612E+03
 -1.119660282203E-01 3.500204485545E-02 2.178523333964E-02 -5.897652227282E-02 -5.367047171465E-01 -3.595182720799E-01 7.494021703794E-01 4.292542202659E-01 -5.901177944550E-02 7.033161222387E-01 8.882998227972E-01 -1.631612117707E-01 -1.620769196032E-02 2.651414152501E+00 3.655127087710E-01 1.060780092845E-01 1.229648935511E-01 1.048437633789E-01 -2.296364164343E-01 2.394947307356E-01 -1.068084089439E-02 8.311515409901E-01 1.705593306017E+00 -3.024330302236E-01 3.458610155097E-02 -2.098123103324E+00 1.005030526656E-01 -1.941105751237E+00 -5.102549652794E+00 -1.758762002944E+00 -8.877784460852E-01 -1.788810087507E+00 1.313872520751E-01 2.771995481694E+02 2.857811253037E+03
 1.448365370680E-02 3.122584646782E-02 -1.012359420119E-01 -3.668005542082E-01 -1.583441811324E-01 -3.480116752036E-01 -2.495995308900E-02 1.492550853732E-01 3.100708811298E-02 2.729512059274E-01 -1.379404824721E-01 -1.325266816585E-01 1.681947185999E-01 2.384745841318E-02 1.202722910764E+00 1.005306396172E-01 1.323361438151E-01 1.032815129111E-01 1.087743531317E-01 -2.352516663005E-01 1.150426109310E+00 3.754461336489E-01 7.505405415061E-02 9.669371115778E-01 3.553293525239E-01 -1.884395094590E-01 -9.150960481883E-01 -3.617010537301E-01 -6.497625160207E-01 -5.598508544185E-01 3.900864651893E-01 6.146543148658E-01 1.145561067199E+01 8.943305944599E+00 -3.900096018745E+01 1.504754717059E+02
 -2.019073337995E+01 -3.430469827656E+01 -1.277066979879E-01 3.936762710406E+01 2.143240296044E-01 8.670009297283E-01 -4.563767448859E-01 -2.976981003024E-01 -2.991785660731E-02 -7.432155408792E-01 -3.329139715639E-01 -2.640706103769E-01 1.822222085869E-01 -1.562826010538E+00 1.262550688201E-01 -1.245788723017E+03 -4.343327469688E+02 -1.941652374555E+01 1.853373849158E-01 8.721820530452E-02 5.598321803670E-01 -2.403050307237E-01 -9.326576471150E-01 -2.136985992310E-01 -1.677851049191E-01 1.219666971167E+00 3.536109675391E-01 2.162234436615E+00 3.476862620523E+00 1.537224290016E+00 -1.947303641158E+01 3.413046465325E+01 -8.977732525575E-01 1.042816527981E-01 2.448909306165E-01 -2.314473883173E-01 2.777916765862E+03
 3.571914333420E+01 6.074996064872E+01 1.591322643143E+00 -6.766780823831E+01 -1.874187467363E-01 -5.794493672913E-01 1.186685684170E+00 6.846790641199E-01 -1.282110579049E-01 9.843862728249E-01 1.488986046412E+00 -1.186539672252E+00 -5.720576989018E-02 4.178029143192E+00 1.441283625430E+00 -4.390910977050E+02 -7.243658357937E+02 -6.368493718674E+00 -4.495631221746E-01 8.177246179209E-01 4.983122588268E-01 1.572298572278E+00 2.425134558511E+00 -1.461235764573E+00 9.286150091304E-02 -3.540573095266E+00 2.914030410859E-01 -2.436914882825E+00 -8.576737142107E+00 -3.114896772269E+00 -3.231332722489E+01 5.713410295107E+01 -1.455949387939E+00 -2.894047710443E-01 -4.248576710107E-01 -5.070661568717E-02 1.959549867871E+01 2.801891051608E+03
 9.083304702641E-02 -8.824024645293E-02 1.029441423434E+01 1.270155877145E+00 5.564801119780E-01 8.731343947275E+00 4.974229963836E-01 2.086662023788E-01 -8.093602256218E-01 -1.443362451400E-02 3.366400259738E-01 -2.023062990323E+00 1.446609728763E-01 1.173679153161E+00 1.348961424572E+00 -2.153000006779E+01 -8.202073548797E+00 -8.336120811148E+01 -4.184480400031E-01 8.982271675842E-01 5.391377242657E+00 9.071019741528E-01 5.290790480305E-01 2.264035072463E+00 -3.361044600624E-02 -1.004818943311E+00 2.455028935512E-01 -1.394088029797E+00 -2.312811855642E+00 -7.305037050744E-01 3.161990496621E-01 -9.449315932237E-01 8.697691270619E+00 2.818006340577E-01 7.977647745548E-02 1.868583202057E-01 4.727964818576E+01 -1.524257888583E+01 1.926557300089E+02
 -6.115351982087E-01 1.915958964372E-01 -1.824010457685E-01 -1.948303278595E+01 -3.261023764784E+01 3.261971714133E-02 2.283341993793E+00 1.433536230251E+00 -1.478584199124E-01 1.845310632158E+00 3.211678525282E+00 5.316581539849E-01 -6.473857495709E-01 8.188312252284E+00 1.452881371477E-01 6.284884950382E-01 3.627012867994E-01 -4.303786719312E-01 -3.543984503597E-01 2.643902577860E-01 -3.833087300968E-01 2.965673990116E+00 5.068246897499E+00 1.528889216150E-01 -2.581552488639E-02 -6.206814833503E+00 -4.242059417113E-02 -7.450687168226E+00 -1.829278845064E+01 -3.743051695583E+00 3.973633614733E+01 -6.962101051078E+01 1.938860881733E+00 -2.337637947572E+01 3.934754894533E+01 -1.065264914947E+00 4.036515757497E+01 6.570802726472E+01 -1.265248466900E+00 2.769463503133E+03
 -3.647063615688E-01 1.355309003763E-01 2.172132261292E-01 3.397590111404E+01 5.505464003800E+01 -9.197701910270E-01 1.516423683760E+00 7.720280383273E-01 -4.843138166418E-01 1.037917599778E+00 1.889050664999E+00 -4.853208143643E-01 -7.214277307833E-01 5.073062194819E+00 5.804235423668E-01 1.526441997871E-02 -4.051130394996E-01 1.224438078916E+00 -3.223638269240E-01 7.797709915832E-01 3.950480778018E-02 1.707776914104E+00 3.093355764224E+00 -5.659363186412E-01 -2.400474943273E-01 -3.882289762513E+00 6.408272803014E-01 -2.389261369464E+00 -1.173313807834E+01 -2.021071249667E+00 1.293587284087E-01 3.442855645429E-02 -2.446648091649E-01 -4.247720828519E+01 7.361120170447E+01 -1.641768898062E+00 1.274692722658E-02 -5.552442397233E-01 -4.677942379483E-01 -3.785125108021E+01 2.756090455119E+03
 1.238802246435E+00 3.762699188824E-01 -1.149467556740E+00 -1.879631069429E+00 -4.900591986332E+00 8.433248690979E+00 -1.539043805279E-01 -3.787982761601E-01 2.012498497959E+00 5.337458274092E-01 -1.677308977139E+00 4.906345937739E+00 -4.053769178531E-01 -2.170032337357E+00 -1.935520900244E+00 -1.380775177621E+00 -5.609296431532E-01 -8.809905928010E+00 -9.549001954117E-02 -1.552061916996E+00 -7.990583452046E-01 -2.235873123949E-01 4.165260394965E-01 1.100171683759E+01 3.455498725373E-01 2.005192002101E+00 -1.640814419373E+00 2.220187337138E+00 3.664444624615E+00 1.009953051399E+00 -2.930380450401E-01 -1.143299193772E+00 1.044467992569E+01 4.784016418380E-01 -1.243963257587E+00 1.298780296156E+01 -1.000096830016E-01 1.724442608225E+00 7.612518450997E+00 2.645584146602E+01 -5.119355279782E+01 1.895851976172E+02
 -8.414179520343E-02 3.158414034163E-02 -6.681060143577E-02 -7.535453742422E-02 -2.120183331032E-01 -1.432768056635E-01 2.076975240946E-01 1.742944081675E-01 6.932894917264E-02 1.216454458804E-01 3.742901271516E-01 -1.148474620172E-01 -1.262367157827E-01 8.655144003444E-01 2.622346766342E-01 6.960607424455E-02 2.491369561720E-02 -8.853761989232E-02 -1.231531558790E-02 3.010133684200E-02 1.775945238369E-01 4.632514641056E-01 5.053747860486E-01 -4.763708423006E-03 2.628766616530E-02 -6.609359393577E-01 -9.164441229968E-02 -8.119181201029E-01 -1.965300215626E+00 -2.702282126876E-01 -1.235691354930E+03 4.330588858308E+02 -1.659638002219E+01 -5.081332339732E+02 -1.562781873335E+01 -2.432172336412E+00 -5.647442142775E-02 -8.137315464389E-02 -4.564067714158E-01 -4.826413468866E-02 8.568411598458E-03 4.114957715579E-01 2.843641348988E+03
 6.459729340977E-02 -2.995334454406E-02 -1.049356916739E-01 -8.873994508692E-04 5.449117195716E-01 5.582588289054E-01 -6.452528564388E-01 -3.198958318999E-01 4.243571396390E-02 -5.556502556104E-01 -6.140197684446E-01 5.299969283049E-01 -1.094655821600E-01 -2.170238737316E+00 -4.044141232443E-01 -7.838730231413E-02 -1.359808525142E-01 -1.053110183536E-01 2.468585332071E-01 -3.699017614433E-01 -3.929498819431E-02 -5.611720971004E-01 -1.350119944406E+00 7.770049885414E-01 -3.319984349457E-02 1.819768423096E+00 -2.615089340625E-01 1.082518767642E+00 4.003611618413E+00 1.537274556540E+00 4.351448662704E+02 -7.296093121225E+02 1.370339668463E+01 -2.544892073411E+01 -1.540832709945E+03 2.297501161100E+01 -2.321071979853E-01 2.613589549140E-01 2.214771622415E-01 8.228036378752E-01 1.917677012028E-01 5.703406176363E-01 2.982609708219E+01 2.891293876525E+03
 -4.087618098728E-02 -1.057083685721E-01 2.755053615762E-01 4.784801176570E-01 2.529890660666E-01 3.086488591855E-01 1.555338401477E-03 -2.157434520797E-01 -3.207293556542E-01 -3.738308962985E-01 7.776950928599E-02 -5.963748579477E-01 -8.383055240910E-02 -1.355281160521E-01 -9.316270835514E-01 -7.978737788197E-02 -1.861657492284E-01 -1.138297082691E-01 -1.612280765964E-01 5.203848552363E-01 -1.034392396512E+00 -4.550191506352E-01 -2.457941779068E-01 -1.957010003842E+00 -3.897508383535E-01 2.460667097645E-01 1.143156030810E+00 4.995317435961E-01 1.254921486928E+00 5.360028833867E-01 -1.656543008532E+01 1.346237281097E+01 -8.613389885882E+01 -1.715063463062E+00 2.345042408238E+01 -7.823518483061E+01 2.326993106564E-01 2.047226799577E-01 4.461572001136E+00 1.174559543123E-01 4.352553208093E-01 -1.148482245888E+01 1.921609861963E+01 -4.346409412583E+01 1.859149116037E+02
 -1.882795995148E-01 7.240639432894E-02 -2.274699760144E-01 -1.243476894690E-02 -5.406274418223E-01 8.005461584820E-01 5.544151789410E-01 3.060768666575E-01 1.143158063639E-01 6.383580102424E-01 3.831354898622E-01 -3.190633053295E-01 -3.520546131469E-01 1.870974372925E+00 3.230610435786E-01 -1.945077925388E+01 3.443678830024E+01 -1.358988748431E+00 -1.926472801013E-01 2.651311195169E-01 1.047644705894E-01 4.033112348649E-01 1.095781059315E+00 -3.103694725175E-01 6.698994504750E-02 -1.515532648387E+00 -1.122025816459E-01 -1.020074300111E+00 -4.191768072166E+00 -7.850827232317E-01 -1.220805050992E+03 -4.259573690848E+02 -5.875630913105E+00 -2.823477832936E-02 -1.408763271972E-02 1.755900026672E-01 -1.174910496887E+03 4.230348968734E+02 -2.131594359663E+01 -4.746900480161E+02 -7.200930617527E+00 -2.314094290355E+00 -1.979967948069E+01 -3.390711813763E+01 1.995032886009E-01 2.754650008224E+03
 3.686732145595E-01 -1.626160990669E-01 -8.927598371272E-02 -5.330900051956E-01 6.528461334222E-01 -2.416613898850E-01 -1.523747569783E+00 -9.259527831633E-01 -6.306802430222E-03 -1.252375832384E+00 -1.874444386857E+00 5.061766954370E-01 7.211465024736E-01 -5.416625726107E+00 -1.432861582007E+00 -3.316594114579E+01 5.806326718154E+01 -2.419807429103E+00 2.518632435001E-01 -6.176596883180E-01 -9.133998415948E-01 -2.030438400591E+00 -3.308796854158E+00 2.466390794079E-02 -3.665608194571E-02 4.282874477498E+00 2.073236941185E-02 2.626064023252E+00 1.235185865834E+01 2.394992137303E+00 -4.295139170808E+02 -7.145496327525E+02 6.030250443534E+00 5.018706475524E-01 5.401520308491E-01 -1.723489215432E-01 4.241867935574E+02 -7.116906913970E+02 1.509954900336E+01 3.996653032233E+00 -1.495842417635E+03 2.802203567000E+01 3.437497674890E+01 5.925603121083E+01 -1.625153386150E-01 2.907139407165E+00 2.805083549453E+03
 2.331345503673E-01 -8.474389540333E-02 4.633765826008E+00 -2.520430545059E-01 2.704276874535E-01 -9.066112518803E+00 2.385856124193E-01 1.110751110670E-02 -2.390054202138E-01 9.847903633280E-02 7.805949489780E-02 -6.857276156458E-01 -1.507298001645E-01 4.279964651382E-01 9.545675641718E-01 -1.094009900409E-01 8.603844399916E-01 9.093333754587E+00 1.628507588140E-02 3.391705083974E-01 7.869261367660E-01 5.196490903869E-01 1.775957378324E-01 -2.764626210187E-01 1.708583034622E-01 -3.290234421460E-01 -2.890087987708E-01 -2.391975888775E-01 -1.587921291432E+00 -5.870608380287E-01 -5.473568811441E+00 5.987943780191E+00 -8.217658617116E+01 1.439809455797E-01 -2.303825869692E-01 -1.005907267474E+01 -2.255816791532E+01 1.299383689266E+01 -8.049232058727E+01 -3.754578739260E+00 2.903753716273E+01 -8.352288390101E+01 -6.907254427344E-01 -7.954893237983E-01 9.396317509007E+00 3.056855846893E+01 -4.826342448887E+01 1.921730655894E+02
 3.506064361635E-01 -1.917425405568E-01 1.671456082837E-01 2.364508165128E-01 1.024142397939E+00 -3.424800555201E-01 -1.649718723152E+00 -1.085439574748E+00 9.345426360931E-02 -1.378886008801E+00 -2.439361853435E+00 -2.896616788770E-01 2.060378159934E-01 -6.030425985400E+00 -2.700180077419E-01 -2.824335409554E-01 -1.857410379439E-01 4.069841985487E-02 3.601946109784E-01 -1.693189764385E-01 2.160505185024E-01 -2.371471823761E+00 -3.845721946457E+00 -1.424499999148E-01 -6.558987871538E-03 4.648237281711E+00 -7.723940086946E-02 5.647334891210E+00 1.289078899462E+01 3.669937390961E+00 -1.906082504286E-01 1.683813728132E-01 2.720924035836E-01 -1.505025401334E+03 -5.285323900987E+02 1.011274497511E+00 -3.162949851511E-01 1.017317496749E+00 1.261327725198E-01 -1.276717145065E+03 4.352339298181E+02 -1.775409083914E+01 4.909184175318E+01 -1.663363413501E+00 -1.055831704164E-01 3.979838524294E+01 -1.092667521602E+00 1.874420967629E-01 3.072396701621E+03
 -1.238788137383E-01 1.525840233464E-01 -2.331469729947E-01 -3.496065515122E-01 -6.199267009145E-01 -3.170713618997E-01 5.730059455078E-01 5.156784022051E-01 3.665408814867E-01 4.573002197059E-01 1.049234289538E+00 6.051654441459E-01 -1.159135657912E-01 2.319820406612E+00 3.149698041557E-01 1.467227331514E-01 1.738226797222E-01 4.378939384048E-02 -3.087094495347E-02 -2.642541976642E-01 1.746255073782E-01 1.235844252885E+00 1.513501351965E+00 1.051106297156E+00 1.163481593210E-01 -1.783137044835E+00 -4.317889173664E-01 -2.422803299095E+00 -5.151201319511E+00 -7.980810242646E-01 1.484419879228E-01 -8.086335504740E-02 1.574544662636E-01 -5.389398403497E+02 -8.659885902936E+02 8.661069941811E+00 1.806091904154E-02 -3.721525949742E-01 -3.811048579967E-01 4.184019983108E+02 -7.263768574410E+02 1.385074762918E+01 -8.581285394916E+01 2.111245820479E+00 -7.750673722238E-01 7.207025029736E+01 3.638622371079E-01 5.576461688050E-01 9.188126135836E+01 2.539194967560E+03
 -3.350625720346E-01 -1.963440548041E-01 8.133464776719E-01 6.406834206924E-01 6.392093593573E-01 4.588768911783E+00 3.062641718379E-01 -4.047827400281E-02 -1.340241847186E+00 -4.752979799389E-01 6.899654672030E-01 -3.098040926319E+00 -3.352465025941E-02 1.056051258254E+00 5.668779355146E-01 8.858620402922E-02 -5.141159099821E-01 -9.609119818949E-02 -2.834381439322E-01 1.378310371417E+00 -1.100659254461E-01 2.944982812159E-01 8.628596088186E-02 -4.891651208265E+00 -4.408580905888E-01 -7.789003893091E-01 1.537777186541E+00 -8.657512007680E-01 -1.253249283578E+00 -2.298232550098E-02 -2.440462877620E-02 3.931482208651E-01 -1.125616606866E+01 -4.061581641513E-02 7.801642547260E+00 -7.075892047382E+01 2.321669451296E-01 4.570580145999E-01 5.309185056595E+00 -1.517308165055E+01 1.320599861612E+01 -7.917383741214E+01 1.921000191007E+00 -2.212981712682E-01 1.199488004603E+01 -1.779797667230E+00 1.718855035715E-02 9.761701487304E+00 1.815877371347E+01 -2.912168878929E+01 1.532593401411E+02
 5.564437348665E-01 -3.591389904628E-01 1.228159386843E-01 -1.227039217832E+03 4.456130324258E+02 -5.501329853616E+01 -1.502894272773E+00 -1.186366284805E+00 1.417861441990E-01 -8.059619241866E-01 -3.060545430065E+00 -6.671012356941E-01 2.950684855488E-01 -5.770956196679E+00 6.725329896501E-01 3.916097735041E+01 -5.751094265295E-01 3.445035850697E+00 2.238710586517E-01 2.477985601966E-01 8.266972713029E-01 -2.372736577496E+01 3.099086769915E+01 -3.509446310035E+00 1.645255548232E-01 4.240239568141E+00 -5.226054136564E-02 8.626277369882E+00 1.400498893870E+01 2.940922601227E+00 -7.447457545295E-02 1.367215683872E-01 3.673884580790E-02 9.243152350830E-02 5.299175145679E-01 1.482462290598E-01 -7.290136510300E-01 6.715891227622E-01 -3.672415606720E-01 -1.134497526302E+03 -3.912798198766E+02 -1.077262662424E+01 2.255056167126E-01 -4.770640301909E-01 -2.428433414429E-01 3.719609475192E+01 -6.485230555118E-01 2.796771782604E-01 -1.886913431854E+01 -3.196533044075E+01 6.248536303670E-02 2.733673228756E+03
 1.368365883952E+00 -6.034556841271E-01 5.947256067804E-01 4.541176960266E+02 -7.307158059400E+02 3.853458444910E+01 -5.363762131473E+00 -3.172428532294E+00 -1.168719709340E-01 -4.797161764136E+00 -6.835547744234E+00 -1.948148297132E+00 2.850373964903E+00 -1.843841056887E+01 -1.472830417516E+00 6.588022320889E+01 -6.716121924595E-01 3.551562931901E+00 8.578732414854E-01 -7.023918673745E-01 3.304229346620E-02 -4.034040935757E+01 4.778110271125E+01 -7.850718930222E+00 2.437264537545E-01 1.378088715156E+01 3.457261161760E-01 1.137705928251E+01 4.223686701178E+01 5.557371972612E+00 -4.422936955949E-01 5.364920562903E-01 -1.025685244137E-01 7.135247157288E-01 1.642090679997E+00 -3.378266786246E-03 -8.012321300827E-01 2.625304831335E+00 9.119848295163E-01 -3.864764116908E+02 -6.648644790032E+02 1.237208869075E+01 4.273737656943E-01 -1.484258587864E+00 9.186913517153E-03 -6.381287727284E+01 -3.039098529527E+00 -9.499330742928E-01 2.780494739075E+01 5.864220702351E+01 2.716543256705E-01 -1.231254246558E+01 2.797594359421E+03
 -9.201219984999E-01 1.052980799797E+00 5.081864589447E+00 -5.904654626302E+01 3.605736517062E+01 -8.555709500028E+01 5.192824744381E-01 7.641583000372E-01 -9.663263432423E-01 1.446300494391E+00 1.487059277301E-01 2.218104138606E+00 -1.734690207932E-01 1.558519592793E+00 2.187353962051E+00 2.675949038359E+00 -5.105695086028E-01 8.704353426528E+00 -7.571945197212E-01 -1.406805789221E-01 1.560083196745E+00 -1.066732446005E+00 3.393398184855E+00 7.610048835776E+00 -1.812473198066E-01 -1.476166832472E+00 -1.473897522549E-01 -1.340332060014E+00 -3.283467038195E+00 -8.785930255311E-01 8.206759172191E-01 7.092288415564E-01 4.518300838400E+00 -1.097159215211E+00 6.933959645262E-01 6.032501361847E+00 -2.722433973599E-02 -7.098348271580E-01 -8.062738626037E+00 -9.122511859255E+00 1.039831535362E+01 -8.194655641448E+01 2.894762862798E-01 -1.217703410340E+00 -4.215669605652E-01 7.794504984524E-01 3.762896070396E-01 8.570616417462E+00 7.424821940758E-01 -4.453918017278E-01 1.008028483228E+01 7.874240674492E+01 -1.243130284083E+02 1.957545247078E+02