#BIOSYM hessian 1
@Type: Hessian Update
@Units
 distance: 	A
 energy: 	Kcal/Mol
#header
@natom 75

#label
C1      C2      C3      C4      C5      C6      C7      C8      C9      C10     C11     C12     C13     C14     C15     C16     C17     C18     C19     C20     C21     C22     C23     C24     C25     C26     C27     C28     C29     C30     C31     C32     C33     C34     C35     C36     C37     C38     C39     C40     C41     C42     C43     C44     C45     C46     C47     C48     C49     O50     O51     H52     H53     H54     O55     H56     H57     H58     O59     H60     H61     H62     H63     H64     H65     H66     H67     H68     H69     H70     O71     O72     H73     H74     H75

#element
C  C  C  C  C  C  C  C  C  C  C  C  C  C  C  C  C  C  C  C  C  C  C  C  C  C  C  C  C  C  C  C  C  C  C  C  C  C  C  C  C  C  C  C  C  C  C  C  C  O  O  H  H  H  O  H  H  H  O  H  H  H  H  H  H  H  H  H  H  H  O  O  H  H  H 

#matrix
225
 2.972717856157E+03
 -2.752093685136E+01 2.997659686812E+03
 -4.918402467743E+00 1.377424468627E+01 2.197517377932E+02
 4.260461993893E+01 7.261874208402E+01 7.484774619053E-02 2.970063033031E+03
 -1.565127326307E-01 -4.032599626941E-01 -2.292701455181E-02 -2.768018187103E+01 2.912206504867E+03
 -1.101695904063E-01 -2.955454247720E-01 9.588783773334E+00 2.753645813139E+01 4.819619109758E+00 2.150338304429E+02
 -2.121818432894E+01 3.668030766076E+01 3.552660047072E-01 -1.094037256089E-02 -4.044959860338E-02 -1.513985368174E-02 3.021458728358E+03
 -3.610144865420E+01 6.646579373407E+01 6.524854317212E-01 -1.828871302357E-02 -6.793431557860E-02 -1.361125086358E-02 3.344223636410E+01 2.904153720697E+03
 -2.448218114179E-01 3.938077951724E-01 1.001646794814E+01 1.917268445991E-03 -5.869847674909E-02 1.892311194995E-03 7.629974180110E-02 3.730964530148E+01 2.141323794983E+02
 4.206674439223E+01 -7.338902934739E+01 -9.248482920367E-01 -2.166282446866E+01 3.775488670136E+01 2.032514610486E-01 4.349585746643E+01 7.738769484801E+01 8.414144044572E-01 2.972575213602E+03
 2.015034333505E-01 -8.748477486023E-02 -1.430153586082E-01 -3.625238392012E+01 6.321822807527E+01 4.405495439962E-01 1.177281490583E-01 1.329496968984E-01 -8.293188051513E-02 3.395157002778E+00 3.007210767576E+03
 -1.167959293107E-01 1.463877550644E-01 1.014388295500E+01 -4.744353261357E-01 7.018166554787E-01 9.601478351201E+00 -5.501827569497E-02 -3.251946719672E-01 1.124552408711E+01 7.187557140941E+00 2.761318650970E+01 2.231266040467E+02
 7.976831259257E-01 5.997461457757E-01 2.323588220983E-03 -2.650007864587E-02 -7.628892598573E-02 -1.719170187581E-03 5.501807097366E+01 -9.264512617426E+01 -1.161511575774E+00 -2.291098784536E+01 3.911787318827E+01 3.176941261490E-01 3.409314247012E+03
 1.099546599364E+00 8.332226065767E-01 -8.242376890557E-03 -5.916668340223E-02 -1.161098762473E-01 1.554646409902E-02 -3.775217249648E-01 -2.050187370010E+00 -1.931889092964E-01 -3.856982244874E+01 6.579627979763E+01 5.144231502838E-01 2.111682317845E+02 3.571160216247E+03
 3.846165568763E-02 9.241674220727E-03 -3.680643850197E-04 5.108319596492E-03 1.067875860357E-02 9.536616146671E-03 6.357192270801E-02 -4.190431800435E-01 1.197051056377E+01 -4.355976806239E-01 6.529207638066E-01 1.137642108790E+01 1.320365548715E+01 4.363192481809E+01 2.208202341293E+02
 -1.311423244769E+03 4.648450613396E+02 4.345029406548E+00 -4.999740341540E+02 -5.143183823077E+00 -1.780105378778E+00 -2.413833470287E-02 -1.247236018088E+00 1.893098519482E-02 1.096741316201E-02 -1.858989912616E-01 -4.691272995759E-03 -6.811197147000E-01 -9.673221236355E-01 -3.329989651878E-02 2.990630874942E+03
 4.573831733278E+02 -7.942039322702E+02 -3.765668821270E+00 -2.311998045971E+00 -1.475011674168E+03 -2.418051027415E+00 9.909138136990E-02 -3.919174037505E-01 -2.778725663115E-02 -1.636499467338E-01 7.641873777598E-02 4.934452531900E-02 -2.634235237214E-01 -3.458327764968E-01 -1.314933533597E-02 -3.933220473184E+00 2.925741290174E+03
 4.253498956568E+00 -3.563869738780E+00 -9.467279597676E+01 -1.657052676422E+00 -3.000367278239E+00 -9.024367730936E+01 -4.274161424505E-02 -4.030669271841E-02 5.365771568161E+00 4.515990544489E-02 1.242943147021E-01 -1.007679672035E+01 1.462135155856E-02 1.783172441719E-02 4.130868162203E-03 -3.103099128094E+00 5.636580870822E+00 2.170084475461E+02
 -1.263470529767E+03 -4.292140265007E+02 -5.051845274110E-01 -6.733972035112E-02 -1.092487916362E-02 7.724221463733E-02 -1.330526129681E+03 4.512679517586E+02 6.779242570030E+00 -5.212086685478E+02 1.577765621856E+00 -3.386022379281E-03 -6.299703887109E-01 -9.338357854643E-01 -3.732952075189E-02 -2.206977735523E+01 -3.703819777449E+01 -1.498596469461E-01 2.989036036715E+03
 -4.289120419452E+02 -7.596862602446E+02 -3.977336606509E+00 8.881859351098E-02 8.270630753206E-02 1.167136321020E-01 4.646637467136E+02 -7.850886383553E+02 -8.916888533440E+00 -3.990218089803E+00 -1.552610420913E+03 -1.555495974627E+01 1.433787998900E-01 -2.469212803271E-01 1.845652214921E-01 3.770553708496E+01 6.469554354535E+01 1.728874927630E-01 -2.453090178279E+01 2.963804837057E+03
 -7.013547452227E-01 -3.991936305594E+00 -9.281128614896E+01 -3.642537568264E-02 2.882395051121E-02 -1.010381327128E+01 7.289025789239E+00 -8.915024947506E+00 -9.511822826244E+01 -1.684021447668E-02 -1.571034346149E+01 -9.491708204700E+01 8.859224478704E-02 1.491436091696E-01 -1.186118398513E+01 2.743967677087E-01 3.079966615787E-01 9.696166753508E+00 -6.985802252667E+00 2.765174616193E+01 2.201661836645E+02
 -4.419191333017E-01 -2.377207347785E-01 9.917898507621E-02 -1.269493609251E+03 -4.400853927230E+02 -1.083331162794E+01 -2.990764579420E-02 4.226732658722E-01 -6.481373234070E-02 -1.269915448543E+03 4.522666185967E+02 3.831844541455E-01 2.141773177121E-01 3.027763977275E-01 9.366537485474E-04 4.098606119878E+01 6.658090622132E-03 2.257919404250E-01 4.432416511706E+01 -2.868586524912E-02 1.259563509825E-01 2.921135664104E+03
 5.412856996239E-02 2.959096525341E-01 6.770727328634E-02 -4.441009877823E+02 -7.616417424332E+02 -6.491322608471E+00 -4.825369536399E-03 -2.706021483602E-01 -1.946376516727E-02 4.537607566397E+02 -7.844151777505E+02 -5.010171577814E+00 -6.947715401169E-02 -1.318680177642E-01 -5.761615791147E-02 -7.084237805140E+01 2.328470245757E-02 -6.002274707637E-01 7.394481726019E+01 -6.090824019068E-02 2.253342618058E-01 -3.538809452615E+00 2.934115396295E+03
 -5.650181004456E-02 6.701431496979E-02 -1.016536734769E+01 -1.035889523891E+01 -6.122644512436E+00 -9.140113764815E+01 1.623818497237E-02 -9.059164978341E-02 5.330762263580E+00 4.794768087783E-02 -4.692145770185E+00 -9.260720300308E+01 -2.780236568987E-02 -5.648138738259E-02 5.232923517509E+00 1.512509549362E-01 2.328176249359E-03 9.829160329849E+00 9.517746963645E-01 -1.159959374285E-01 1.030428607966E+01 1.179311641614E+01 2.174697433882E+01 2.135039298109E+02
 -4.277772553028E-01 -3.209754176044E-01 -1.069881821153E-02 1.811740400489E-02 7.172746883564E-02 6.765954836343E-03 -1.337158430859E+03 -4.711507346765E+02 -8.206510509571E+00 6.504302159096E-02 1.627151595327E-02 5.083193313438E-02 -6.512652759099E+02 1.649880124466E+01 -1.603927754348E+00 3.707685195198E-01 1.207093482543E-01 5.957099467120E-03 -2.322913368851E+01 -4.186336880438E+01 -6.765660627834E-01 -7.199488553001E-02 2.052699593057E-02 1.120902284524E-02 2.747304170040E+03
 -7.437339210846E-01 -6.017275983003E-01 -8.033775008598E-02 1.459064864984E-02 9.664415856366E-02 -3.774655083255E-03 -4.928547884943E+02 -8.333683842355E+02 -1.042578004853E+01 -9.245592681060E-02 -1.046502594029E-01 1.909697046384E-01 -2.456466795021E+00 -1.855477348551E+03 -2.272954740868E+01 7.211237224048E-01 2.128134569017E-01 -2.952228992918E-02 3.955009225492E+01 6.864189605785E+01 7.984931029665E-01 -1.694035825901E-01 1.082332307004E-01 2.060073533595E-02 2.205782215532E+02 3.124386248806E+03
 2.026036974829E-02 -3.813546354769E-02 5.426543563557E+00 -2.091735145929E-02 5.252202477320E-03 -7.464807252331E-03 -8.939680197563E+00 -1.053357691849E+01 -8.925569873719E+01 -1.447846426343E-02 4.645739557711E-02 -1.173290538700E+01 -1.823707077115E+00 -2.232455306426E+01 -1.058986741194E+02 2.931549128371E-02 -1.710151151322E-02 -2.169193737566E-03 6.358159613067E-01 8.232001387680E-01 1.179480362911E+01 2.711942989837E-02 1.265512780746E-02 -2.629270467694E-02 1.093613408245E+01 3.665188049929E+01 1.928554959787E+02
 -6.692533534069E-02 -9.812561615219E-02 -3.907930396992E-03 -7.019549690646E-03 -1.037075222607E-02 -2.578773174956E-02 4.280923387651E-01 1.875090882543E-01 5.891130741439E-02 -1.312404114093E+03 -4.528031944195E+02 -7.148989479646E+00 -1.306401440039E+03 4.324595216006E+02 1.965813920775E+00 7.732717468779E-02 6.166296381687E-02 -2.857910890604E-02 4.433923314406E+01 -5.228538037306E-02 2.485106123974E-02 -2.266694812874E+01 -3.788156879041E+01 -4.411923205820E-01 5.248912285080E+01 -2.606930935272E-01 6.449607563007E-02 3.033461641508E+03
 -3.942290361858E-01 -2.061516146268E-01 -3.933978534864E-02 6.540170424985E-02 -1.877130489550E-02 -6.127570089857E-02 1.213346906273E-02 4.758319696526E-01 1.227760350588E-01 -4.558112570758E+02 -7.986457063981E+02 -7.952305495457E+00 4.454837828258E+02 -8.407652473264E+02 -7.610265432283E+00 2.969653560950E-01 1.184677737547E-01 1.361771696443E-03 -7.558877391318E+01 2.226902541201E-01 -1.908631680952E-01 3.843263366172E+01 6.492452644671E+01 5.096200068949E-01 8.808064670763E+01 -7.477152873044E-01 1.368511348241E-01 1.269565506813E+01 3.143617507787E+03
 1.847934973111E-02 -6.536373669258E-02 5.193027888477E+00 -1.312518897578E-02 -5.072634447567E-02 5.154749589425E+00 -1.775551404096E-03 1.653948815334E-01 -1.179273178288E+01 -6.999349525692E+00 -7.803228977150E+00 -1.002497993485E+02 2.148094267840E+00 -7.618045548225E+00 -9.704559348100E+01 -1.838431425850E-03 4.318256539498E-03 1.120775837153E-02 -7.257034222189E-01 -1.205128818104E-01 1.056936277450E+01 2.765510269741E-01 3.476242202477E-01 1.091999422852E+01 1.280722934124E+00 -1.726210668947E-01 1.207257163532E+01 5.931006046351E+00 2.977576427239E+01 2.283122688316E+02
 1.252983640218E-01 7.144676253654E-02 -3.568067878268E-03 -3.464269058246E-02 -2.669018889687E-03 1.581564907864E-02 -6.661818873324E-02 -1.793277829522E-01 -1.658741441175E-02 6.044699986876E-02 -3.689772593048E-02 2.271142364891E-03 -7.138553184026E-02 -8.177225444411E-02 -3.823237236379E-03 -3.121308778830E-02 -6.364991044387E-02 -7.475255771986E-02 -5.827435841119E-02 -3.826454275026E-03 5.731671425118E-03 6.094871663572E-02 -1.026698392879E-02 -3.998752360880E-03 1.931994857193E-02 1.246195774794E-01 1.097558415699E-03 4.279198703770E-02 9.205767939229E-03 -1.363234174999E-02 3.040670826628E+03
 -2.972681224338E-02 -7.256694868563E-03 2.482409975510E-02 -4.983712931738E-02 2.218558276269E-02 1.689051999315E-02 -2.580382464732E-02 5.755024507550E-02 1.800974223643E-02 -4.112254188937E-02 -3.535448485147E-04 -8.212973974339E-05 6.650347595742E-02 7.453668893194E-02 9.499976058235E-03 7.063181782214E-02 4.185792746754E-02 1.959296860444E-03 6.260806285104E-02 1.988205027582E-02 8.282787848714E-03 1.187464011361E-02 -5.674550915341E-03 8.412096087994E-04 -3.743881648945E-02 -4.165839188204E-02 1.249104351090E-03 -5.867220853986E-03 -1.579573035252E-02 4.421571961998E-03 -2.071933200717E+01 2.890480409713E+03
 2.883387128879E-03 2.686726258230E-02 -1.595340936057E-03 -5.607758820362E-03 1.920177870092E-02 1.480261553020E-04 6.656139530929E-03 -1.045742929581E-01 -3.516427225016E-03 -3.067524331333E-02 1.577157960475E-02 4.014039009247E-04 -6.701902660183E-02 -1.038337270871E-01 -2.020315307825E-03 -4.802029539573E-02 4.546074850166E-02 5.215309838774E+00 -2.133920890684E-02 -1.017938930417E-04 -8.022762981180E-04 1.109024118335E-03 -1.444785589213E-02 -2.856144590942E-03 3.471487863153E-02 5.620894607429E-02 1.478754763835E-03 7.677054671434E-03 4.289137001726E-02 -4.831655714404E-03 1.413012510678E+02 -1.392729055333E+02 2.348796967738E+02
 -7.533114126490E-02 -8.273454452132E-02 -1.555911002964E-02 2.381579852908E-02 3.989801392067E-03 -6.688692808655E-03 3.995626447469E-02 1.909779472417E-01 -5.688420325336E-03 -3.953656388387E-02 2.359097701730E-02 -2.568186666727E-03 8.475075144000E-02 1.263432762342E-01 2.579331206470E-03 4.314905230194E-02 3.802531352500E-02 -1.708011649551E-02 8.020335008394E-02 9.020022971369E-03 -9.263368281423E-03 -6.028467406296E-02 2.269751682252E-02 1.220903143031E-03 -5.280908642312E-02 -1.215921682647E-01 -8.817238044640E-03 -9.648614209143E-03 -1.771915473302E-02 -9.534463058601E-04 5.054723431785E+01 8.801751426553E+01 2.090015590720E+00 2.795030127506E+03
 -1.635520821470E-01 -2.082538657877E-02 4.273570510840E-03 1.005757965996E-01 2.398885894119E-02 3.597959926515E-02 1.470475094795E-01 1.915361095327E-01 2.182005295567E-02 -2.316932216065E-01 1.316048805472E-01 -4.891829564576E-03 5.246417939720E-02 -1.747241265050E-02 1.743107407239E-02 1.637293899110E-02 4.762747096259E-02 2.595326129162E-02 8.264345526783E-02 3.211824712883E-03 -8.495392670422E-03 -1.835217778177E-01 3.051612599838E-02 2.111609290519E-02 3.366755834586E-03 -1.673425735909E-01 -1.053006489112E-02 -7.996490900872E-02 1.086722277024E-01 3.766023304585E-02 3.514303840759E-02 -3.506997953878E-01 2.492526551762E-03 2.673427451515E+02 3.059592541976E+03
 -4.813206194812E-02 -4.481288675449E-02 -1.994345266666E-03 -5.831775274177E-03 3.415520939017E-03 -8.921211276995E-04 -1.958398682326E-02 1.194124748657E-01 3.344623289966E-03 -5.731966915371E-03 -3.177048551133E-03 -2.165821337763E-04 8.500669958088E-02 1.266760964843E-01 4.252469944809E-03 5.573385426464E-02 2.386564266025E-02 7.148003877889E-05 6.719368992076E-02 9.495451337984E-03 -1.331968502594E-03 -1.370827071392E-02 1.519111331827E-02 3.878613928911E-03 -5.236551175774E-02 -6.918665967471E-02 -4.180280314153E-03 1.820974439875E-03 -3.763722642696E-02 3.316600367377E-03 2.983261611892E+00 7.573733850144E+00 1.470579643486E+01 1.650041380171E+02 -1.086199011959E+01 1.724852095979E+02
 -2.261753205077E+01 -3.852095782932E+01 -1.486614743624E-02 4.202469692489E+01 -4.938619019841E-02 -2.775816083837E-02 -5.132293883479E-02 5.939614334952E-01 -1.322850052661E-03 -2.352482462052E-02 2.065216112000E-02 1.574993779793E-02 3.734865972247E-01 5.120558816635E-01 1.900188203666E-02 -1.309104077228E+03 -4.516643177334E+02 5.046504507182E-01 2.781178891475E-01 -5.201880439398E-03 3.030672747979E-02 -6.574376261346E-02 1.457537702467E-02 2.072092595903E-03 -1.981493094570E-01 -3.442209286908E-01 8.122829927247E-05 -4.973088638535E-02 -1.615839852348E-01 6.534640607768E-04 -2.122878110325E+01 3.725514060788E+01 -6.502013643141E-01 -5.109632829475E-02 8.778926585782E-03 -3.055465098478E-02 2.940606377428E+03
 3.836123100370E+01 6.645484970118E+01 9.109438659005E-02 -7.263500855014E+01 1.650007991110E-01 1.015060887176E-01 -7.471338761335E-02 1.459671233871E+00 5.271496031961E-02 3.704470467437E-02 -3.910924549732E-02 -4.036428952643E-04 8.799351037551E-01 1.288538865653E+00 2.771624220097E-02 -4.586865149642E+02 -7.845688333460E+02 1.560884234480E+00 6.137281802346E-01 -2.626851279134E-03 -2.320164053776E-02 -1.286969874976E-01 9.741157771315E-02 -1.376594467455E-02 -4.555197457574E-01 -8.616379563465E-01 -2.570034661052E-03 -1.412177537010E-01 -4.529512188512E-01 4.981953390958E-03 -3.647254308214E+01 6.367037284155E+01 -5.952134482355E-01 -1.324393157173E-01 -7.609633009972E-02 -7.335586761910E-02 2.720176811537E+01 2.968939711574E+03
 1.457664739868E-01 3.690892266019E-01 1.119216436438E+01 -2.154135553859E-01 -7.150303259362E-02 1.020615459688E+01 -3.987227582247E-02 -1.360864521489E-02 1.315917506859E-03 -1.203449199261E-02 4.994676154698E-03 -7.843270221923E-05 -6.209621565837E-03 -1.463415854025E-02 1.632159701007E-03 -7.344021956279E-01 7.760712414550E-01 -9.420494667610E+01 -2.083438417460E-03 -4.806112565083E-02 5.233129711082E+00 -6.366127861691E-02 1.157326506133E-02 5.035212626768E+00 1.291386926297E-02 -3.925710785390E-03 -2.134244798688E-03 -1.677050080996E-02 1.590442737138E-02 -1.188487899301E-04 -5.189460869196E-01 7.465413383683E-01 9.156219975674E+00 -1.978323754194E-02 1.115565042476E-03 3.257401289954E-03 1.801513563600E+01 -1.219597089364E+01 2.169777993288E+02
 -1.168242977092E-01 -1.136963574435E-01 -1.956315610187E-02 -2.053714876120E+01 -3.512909588636E+01 -9.327785674191E-01 6.009962605319E-02 2.414891476588E-01 1.564365417797E-03 -8.360969281656E-02 5.213971160000E-02 -6.615591613868E-03 1.080211984273E-01 1.534344458118E-01 3.887370740907E-03 7.579609529228E-02 4.583741686042E-02 8.545335980250E-02 9.969698800221E-02 1.284551600616E-02 -4.360691580399E-03 -1.244589271663E-01 5.469199918566E-02 -7.984137516571E-02 -6.719419005746E-02 -1.665831963474E-01 -2.362247830927E-02 -1.108341532095E-02 4.276088628234E-03 -1.335454773558E-03 4.393771034401E+01 -7.627448845242E+01 2.102907590210E+00 -2.523930756349E+01 4.300569952531E+01 -1.713739572336E+00 4.204151873685E+01 7.220379407397E+01 -7.981797763085E-01 2.987205077963E+03
 -3.381199757639E-02 -8.931777019555E-02 -4.081770011341E-02 3.610941281935E+01 6.162534210741E+01 1.321569004254E+00 -5.983840102894E-02 2.391748050667E-01 -1.157666011843E-02 6.450450927675E-02 -2.647030335244E-02 7.633201077549E-03 1.552624090481E-01 2.386665633961E-01 6.735029450927E-03 1.849836695585E-02 4.851981727518E-02 -9.581607563428E-02 1.001333354217E-01 9.649903941722E-03 2.297549986015E-03 2.926492146554E-02 -2.037747257048E-02 -6.882839414294E-02 -8.352177172814E-02 -1.223271165975E-01 3.499684701954E-03 -1.502872276868E-02 -1.114846083902E-01 -8.106633155910E-03 8.981854476193E-02 -3.543486650907E-01 1.927658994715E-01 -4.680634773616E+01 7.978294237754E+01 -1.900729127641E+00 5.573564777627E-02 9.305916913528E-02 1.775192665648E-01 -7.543224040880E+01 2.927339123437E+03
 -8.743284939862E-03 -2.095368361699E-02 6.174141216338E-04 -1.627049081633E-01 9.777015969728E-02 8.876710038553E+00 7.234843860507E-03 -9.021195600117E-03 -5.542287750542E-04 -2.499398116753E-02 1.542518064531E-02 -1.684022071085E-03 -8.871099856229E-03 -7.628485696634E-03 8.830246218875E-04 2.201574722215E-01 -2.783978909939E-02 -9.880429051574E+00 2.836471322412E-02 1.099484939293E-02 -2.248435150132E-03 -4.875390574783E-02 -1.825323300809E-02 4.838492812960E+00 2.410855550696E-03 7.950143534587E-03 -1.654274583672E-03 8.229066124559E-03 -5.723080959656E-03 9.854461527227E-03 9.162869348163E-01 -1.838169365407E+00 1.242679839901E+01 -2.372657406897E+00 2.799256627787E+00 1.449912842594E+01 2.367130324191E-01 7.030536706451E-01 9.437443972702E+00 9.878325761317E+01 -4.123497040111E+01 2.146321950749E+02
 -2.015017154653E-02 -9.658612951333E-02 8.670505195844E-03 -1.384522025767E-01 1.184225045827E-02 -2.539192097259E-02 -1.646813523423E-01 1.970118696281E-01 -8.773894283319E-04 2.505865821069E-01 -1.576169239240E-01 4.455103249432E-03 1.796422204278E-01 3.692109735581E-01 -1.168320963748E-02 1.805908430339E-01 1.806286972709E-02 -1.530049708569E-02 8.484822997382E-02 4.579346959419E-03 2.005597095044E-02 1.967603613544E-01 -3.508379750560E-02 -1.817549286869E-02 -1.246277000444E-01 -5.656892331032E-02 8.875700731123E-03 4.744665860047E-02 -2.540051481477E-01 -2.931939114228E-02 -1.378686110199E+03 4.631169388227E+02 -1.056176537870E+02 -5.486042036557E+02 2.290624191396E+00 -4.155336455426E+01 -4.312072291426E-02 -1.014548290597E-01 -2.707203012286E-01 -7.623438046268E-02 -6.696043647341E-02 6.389043984803E-01 2.705608043994E+03
 9.454586214634E-02 -1.689244804989E-02 -1.677941158226E-02 -3.087073802824E-02 -2.763125962263E-02 -3.332315840952E-02 -4.859296368972E-02 -8.670035411199E-02 -2.426322453921E-02 1.055208142399E-01 -5.123622426379E-02 2.132559669587E-03 -3.598109764486E-02 -2.838712447586E-03 -1.031414954015E-02 -4.414974032193E-02 -6.847447790201E-03 -2.198607289846E-02 -4.915144527269E-02 -1.312682377080E-03 -8.651012228261E-03 5.410683146137E-02 3.776490603874E-03 -9.668026633976E-03 -9.177847543957E-04 7.701016481192E-02 1.693800040159E-03 4.109441992875E-02 -3.354307495904E-02 -1.959416220600E-02 4.985725955436E+02 -8.036126148558E+02 5.116029695562E+01 -3.410761973899E+01 -1.736206009002E+03 1.993915743967E+01 -4.915868836876E-02 -6.878084208105E-02 3.006288783579E-01 2.446104101115E-02 -7.767549804045E-02 -4.979418550914E-01 -1.334340530271E+02 2.964572580256E+03
 -5.284214936610E-02 -2.902207726633E-02 2.169310025762E-03 -6.337272417465E-04 1.509898266326E-02 -8.375749654058E-03 -6.734526840321E-02 1.381340540627E-01 3.082142863449E-04 7.060847017801E-02 -4.518967439957E-02 3.261536660013E-03 1.100425781405E-01 1.910901054719E-01 -3.817296445044E-03 7.020048987813E-02 -4.470276226680E-02 -5.285653820357E-03 7.615569950121E-02 -3.549609470509E-03 2.627201760602E-03 4.442636003359E-02 2.186124050290E-03 -1.058229598151E-02 -7.549076378258E-02 -5.975291007182E-02 3.136408540927E-03 2.013899897970E-02 -9.506662775346E-02 -1.965618843037E-02 -1.121323486467E+02 5.223795320487E+01 -1.098648362204E+02 -4.130155513070E+01 1.732045767309E+01 -9.339365230223E+01 -1.683998007280E-01 8.366774180157E-02 5.410997649871E+00 7.771108176149E-01 -1.174647058660E-01 -1.250195250076E+01 2.759675737013E+02 5.149262646911E+00 3.148990555315E+02
 -2.536688407952E-01 -1.169924812367E-01 -3.281850267669E-03 -2.625687430384E-02 -1.723149295386E-02 1.504665099255E-01 5.369110126615E-02 3.966836113854E-01 3.118525364887E-02 -8.317578751837E-02 4.089329594736E-02 -7.400445764077E-03 2.225217187700E-01 3.101761793609E-01 9.659213914100E-03 -2.112231559469E+01 3.707477815852E+01 -6.738477362518E-01 1.797316312808E-01 -1.261799560544E-03 5.697843133197E-03 -9.007085525442E-02 2.373051880927E-02 2.090724061511E-03 -1.113162539049E-01 -2.760821334615E-01 -4.312415615666E-03 -5.992594397345E-02 -8.280460104518E-02 1.027525548115E-02 -1.312241442350E+03 -4.532690419366E+02 -3.093565220200E+01 -5.591478768245E-02 -3.358263611528E-01 6.402056067789E-01 -1.240820560461E+03 4.299747808258E+02 -1.609804520906E+01 -5.133591356607E+02 -7.071622445732E+00 -1.119969069566E+01 -2.302679369297E+01 -3.999804933405E+01 3.743082977759E-01 2.944958841731E+03
 5.818924813696E-02 -1.588894843337E-02 7.584645917751E-02 -2.670021518683E-03 3.647121494128E-02 -1.782699878579E-01 1.344758321323E-01 -1.941457068915E-01 -2.105314727015E-02 -2.205962495040E-02 2.801463071379E-02 -9.542168150614E-03 -1.978283445958E-01 -2.616490896578E-01 -1.275630624186E-02 -3.663004617750E+01 6.349367074927E+01 -9.646639727548E-01 -1.287320672936E-01 -5.932697273418E-03 -2.121577497670E-02 -2.386937409305E-02 -1.641580956121E-02 1.453243316036E-02 1.019112803365E-01 1.080394442400E-01 -7.983258014542E-03 1.972970087161E-02 9.640246248608E-02 1.333046465300E-02 -4.665005440723E+02 -7.882825422845E+02 5.415330168668E+00 -1.603122935231E-01 -3.360698093358E-01 -4.319646111544E-01 4.292984575123E+02 -7.548752054058E+02 9.356171046967E+00 8.882618865316E+00 -1.550607084747E+03 2.429796145117E+01 4.107128771349E+01 7.001129971914E+01 -1.443930677538E+00 2.147279934309E+01 2.960503429166E+03
 -5.489842894235E-02 2.437076263891E-02 5.162211727650E+00 2.306364678502E-01 6.370021591824E-02 -9.867789977727E+00 -1.595433612460E-02 2.098540381470E-02 2.484096116958E-03 4.285494359074E-03 2.406255985469E-02 4.553460382787E-05 1.463764086674E-02 1.521268385319E-02 3.336897367403E-03 2.218142768098E-01 -5.904409316549E-01 9.733230906716E+00 1.005427436828E-02 -3.600099811093E-02 -8.293724501944E-04 -5.357272053169E-02 1.157991999741E-02 2.953190066010E-03 -6.227330664186E-03 -2.351334206497E-02 -2.523122252711E-03 -1.075317155445E-02 5.654638090796E-03 3.487845213762E-03 -2.830873644470E+01 7.022800865507E+00 -9.611028408315E+01 7.620302441794E-01 2.130207424883E-02 -1.232175135023E+01 -1.838415802713E+01 1.102419253730E+01 -9.080111473150E+01 -1.136040179163E+01 2.178765958382E+01 -9.362915463107E+01 -4.356636587808E+00 -5.476988890968E+00 1.391948103553E+01 5.401835946813E+01 -3.522935833625E+01 2.181122108508E+02
 1.701567421317E-01 1.232223694594E-01 1.547113813484E-02 -4.372436385644E-02 -1.751109222224E-02 -1.893478137510E-01 -7.251878433043E-02 -3.482580045792E-01 -7.189324569185E-03 9.417140167172E-02 -5.122869206612E-02 5.981443962060E-03 -1.624606174275E-01 -2.196069795458E-01 -7.713693367487E-03 -1.044971366607E-01 -7.844175622223E-02 5.763368004709E-03 -1.507597334123E-01 -1.547517560310E-02 4.040189474629E-03 1.049527854275E-01 -3.139372347288E-02 -6.947310788298E-03 8.172278675556E-02 2.215507322852E-01 1.517021244294E-02 3.707481094153E-02 3.242483009221E-02 -1.114456643684E-02 -7.540334277593E-02 1.099669413274E-02 6.473455185565E-01 -1.474747585372E+03 -5.308600256547E+02 -7.944231065115E+01 8.834313804419E-02 1.995839139951E-01 -2.090897530387E-01 -1.415743699375E+03 4.780286252248E+02 -5.864955072875E+01 5.458962759532E+01 -4.316789085102E-01 2.202313524601E+00 4.411530925758E+01 2.894566940068E-01 1.244067903296E+00 3.177112171990E+03
 -4.733325164945E-04 6.969539386659E-03 1.394251049473E-02 -4.433006139973E-02 -5.659859214801E-03 1.005518293936E-01 -3.947982403323E-02 -8.849614053226E-03 3.808079681693E-03 4.783256070860E-02 -3.500334549472E-02 3.633281433650E-03 1.897700660531E-02 4.316307528077E-02 -3.176818604998E-03 3.231839202372E-02 -7.323436523827E-03 1.146051035033E-02 1.584409758049E-03 -4.831766180036E-03 7.125938350316E-03 5.317565517489E-02 -1.287770410698E-02 -7.997390779012E-03 -1.693715475352E-02 9.361629158619E-03 7.817929830479E-03 8.392721590693E-03 -4.116784054182E-02 -1.241036152944E-02 -1.981179984166E-02 -1.657065517317E-01 -3.199487581152E-02 -5.198843565224E+02 -8.884380971529E+02 -2.701250577236E+01 1.622667216266E-02 4.010232179471E-02 1.156493959012E-01 4.607175795307E+02 -8.037378532243E+02 2.438255223775E+01 -9.368289057339E+01 5.743908409648E-01 -5.548291998456E+00 8.138395120356E+01 5.597895942984E-01 3.194630072439E+00 4.163400131334E+01 2.623389538295E+03
 -1.517517812761E-03 -2.607819517648E-02 2.020251624309E-03 -1.420264801990E-01 -8.799351074035E-02 5.480232921705E+00 -3.037814953490E-03 7.551518378435E-03 -1.615561961618E-03 1.793878676082E-02 -2.229459603257E-02 8.134176474628E-04 6.554371584371E-03 2.072064196538E-02 -2.713019279895E-03 1.225424416101E-02 3.103185350785E-02 -1.906724374542E-03 3.269026216610E-03 5.813432664272E-03 2.177868494878E-03 3.538382922436E-02 -4.574869455713E-03 -4.712066983848E-03 -1.095553920638E-02 -2.460904289796E-03 2.772082666138E-03 5.326684636625E-03 -1.728109383099E-02 -7.362640779249E-03 7.113341029083E-01 -1.995041038933E-01 -1.239682633981E+01 -7.855975893074E+01 -2.700142085644E+01 -7.978629730612E+01 -1.073297139482E-03 7.177888953508E-02 5.349145253616E+00 -6.007341105745E+01 2.610812049119E+01 -9.073822103702E+01 3.925311683107E+00 2.190861430256E-01 1.604840597160E+01 -1.010030596624E-01 1.686171901228E-01 1.124076641862E+01 1.528721925318E+02 -3.852308056793E+00 1.734099382724E+02
 1.683894843336E-01 1.339992718186E-01 -8.485329023436E-02 -1.331840640507E+03 4.625731151727E+02 -1.504779204157E+01 -9.138311712760E-02 -2.331202963984E-01 3.520379697088E-03 4.441590634209E-02 -2.919579507084E-02 -2.751364188237E-02 -9.779183480327E-02 -1.758797173311E-01 3.869265998189E-03 4.301542769537E+01 -1.422763259978E-01 3.875327290214E-01 -1.087653361230E-01 -2.187436890662E-03 1.702324109552E-03 -2.207407119411E+01 3.856891733387E+01 -3.603883198269E-01 9.495585258757E-02 1.549526775198E-01 2.907593393832E-02 -3.280179030573E-02 2.667395627255E-04 7.302897836459E-03 -1.612994352844E-02 -6.715726707604E-03 -1.751009520468E-01 1.197209170922E-02 -3.263811558050E-02 -2.108936166123E-01 -3.019518400360E-04 7.153805997597E-02 2.599571893923E-01 -1.184291136678E+03 -3.950813444401E+02 -2.869636329291E+01 9.664685844275E-02 2.023062578219E-02 -1.954609090573E-02 3.945532941052E+01 1.582152389058E-01 9.663244807944E-01 -2.007153855707E+01 -3.705952717477E+01 -4.095645538489E-01 2.922423850244E+03
 -3.358055923838E-02 5.176028143745E-02 3.552156040660E-02 4.761909857951E+02 -7.981537670178E+02 2.777756830698E+00 7.321637701578E-02 1.233760945576E-02 1.432492259871E-02 5.083848500959E-02 -6.338289791580E-02 3.527189824944E-03 -2.104451182372E-02 3.604350971116E-02 -1.934925073571E-02 7.376848268205E+01 -2.135088858772E-01 9.153791802839E-01 -1.846793329872E-02 -3.486483811440E-02 1.508068405352E-02 -3.768248847276E+01 6.583233749844E+01 -4.756432914027E-01 -8.791015549982E-03 5.994058510116E-03 -2.436271951115E-03 3.787492660763E-02 -5.392516876956E-02 -5.148288062100E-04 8.501221158818E-03 -5.076792349061E-02 4.953947421777E-02 -5.815522378944E-03 -8.621037461423E-02 1.044289298322E-01 2.146437247135E-02 1.032466401206E-01 -7.711785480306E-02 -3.980307909813E+02 -7.188463927937E+02 -9.009407294698E+00 5.725138860297E-02 5.763486610471E-02 5.057556584284E-02 -6.924667991320E+01 -3.451392516335E-01 -2.144136954294E+00 3.528061237597E+01 6.511099687298E+01 2.704724125055E-01 -2.920908527357E+01 3.021842853768E+03
 4.263988798592E-02 -4.140481191547E-02 5.304740737581E+00 -1.550723158540E+01 2.980876453920E+00 -9.492982999733E+01 -3.694277943955E-03 -3.933430373608E-02 -1.778428167621E-03 -7.023477502311E-02 -4.826450696812E-02 5.244243027103E+00 -1.295381811655E-02 -1.835459584533E-02 -3.683894911298E-03 5.459002875066E-01 8.906784652366E-03 9.714965466113E+00 2.727628434520E-02 3.659588074422E-02 5.516397895929E-03 -2.994958943206E-01 2.829736223261E-01 1.111676658842E+01 2.079061478117E-03 2.220945861597E-02 3.750014554165E-03 1.356931770448E-02 -1.603791856379E-03 -2.429326579709E-02 -1.792327852946E-01 5.408608972764E-02 4.833339098097E+00 -2.501617202278E-01 -8.127413746800E-02 5.928993746471E+00 3.039112288441E-02 -8.095610502732E-02 -9.920217256388E+00 -2.814486537189E+01 -8.507618968573E+00 -9.160449994498E+01 -2.761305597662E-02 7.632003958175E-02 -8.174235159146E-03 2.228117968136E+00 1.597919118025E-01 8.913431264520E+00 -1.810567794763E+00 -2.259404690878E+00 1.140969982841E+01 4.913581902200E+01 2.273772710145E+01 2.141437600459E+02