#BIOSYM hessian 1
@Type: Hessian Update
@Units
 distance: 	A
 energy: 	Kcal/Mol
#header
@natom 66

#label
C1      C2      C3      C4      C5      C6      C7      C8      C9      C10     C11     C12     C13     C14     C15     C16     C17     C18     C19     C20     C21     C22     C23     C24     C25     C26     C27     C28     C29     C30     C31     C32     C33     C34     C35     C36     C37     C38     C39     C40     C41     C42     C43     C44     C45     C46     H47     H48     C49     C50     H51     H52     H53     H54     H55     H56     H57     H58     H59     H60     H61     H62     H63     H64     H65     H66

#element
C  C  C  C  C  C  C  C  C  C  C  C  C  C  C  C  C  C  C  C  C  C  C  C  C  C  C  C  C  C  C  C  C  C  C  C  C  C  C  C  C  C  C  C  C  C  H  H  C  C  H  H  H  H  H  H  H  H  H  H  H  H  H  H  H  H 

#matrix
198
 2.787043249909E+03
 -2.862421209622E+01 2.820494830627E+03
 4.298728683168E+00 -5.130887908923E+00 1.934252021511E+02
 3.774852037730E+01 6.649318962828E+01 -1.251568036484E-01 2.796705951134E+03
 -5.988371080522E-01 -1.958628499841E+00 2.255370892415E-02 -2.016659113097E+01 2.767796681867E+03
 8.616714469741E-02 1.517247638482E-01 8.644709214924E+00 1.967957233407E+00 -5.859928958137E+00 1.910952135322E+02
 -2.286965145721E+01 3.465657309513E+01 -1.965955879168E-01 -2.074396183678E+00 -2.823455227124E-01 -7.174283502800E-02 2.789880345270E+03
 -3.140924175975E+01 6.002097089222E+01 -2.468434487864E-01 6.117467886971E-01 5.104264911247E-01 -5.804608889126E-02 -2.211260399605E+01 2.839244707964E+03
 -1.272397417846E-01 -1.106338954598E-01 9.223445622906E+00 -9.885724076810E-02 6.196667817592E-02 -5.164773548808E-02 4.974456672176E+00 -6.910169771831E+00 1.849313386022E+02
 3.924591098374E+01 -6.855220337641E+01 2.701064380246E-01 -1.950575530024E+01 3.589173571911E+01 -1.774420442176E-01 4.031631979704E+01 7.132429098320E+01 -2.262964151771E-02 2.791690641403E+03
 2.432551480991E-01 1.207969187562E+00 -1.749883449524E-02 -3.185042901113E+01 5.961759616185E+01 -2.106973481052E-01 1.873422433835E+00 -3.246450276681E+00 -1.115229691764E-01 -2.616766294511E+01 2.832498592236E+03
 6.633493017328E-02 -1.350180489849E-01 9.505996295604E+00 -3.125076182771E-02 -2.834567514096E-02 9.246666779605E+00 -2.057116445953E-02 2.360165573968E-01 9.245461138514E+00 2.600685503388E+00 -8.402573691722E+00 1.985988882613E+02
 -7.558488095187E+00 -2.953946916727E+00 1.427164774595E-01 -6.788443377740E+00 -4.319182710250E+00 3.689653204780E-01 3.374030956274E+01 -7.231811445296E+01 -1.427439797291E-01 -1.810165376877E+01 4.561308309692E+01 -3.702699673809E-01 3.072950111024E+03
 6.909924442347E-01 -5.798733367044E-01 8.568696063001E-02 1.543292981288E+00 -6.883482871910E-01 1.490362994602E-01 5.611549017309E+00 1.991577104838E+00 -1.167713966301E-01 -3.116357208295E+01 6.431800577479E+01 -7.128599133924E-02 -4.922009917295E+00 3.154049844443E+03
 3.250930837389E-01 -8.179489745917E-02 -4.123417989010E-03 3.663747618773E-01 3.428308801664E-02 -5.412996328270E-02 1.537328962106E+00 -1.418090409411E+00 1.068838141517E+01 6.248343205005E-01 1.796291159750E+00 9.571634373178E+00 3.118864322120E-01 -1.095105342669E+01 2.306470012402E+02
 -1.228133840798E+03 4.492639227798E+02 -2.642671086647E+00 -4.659000072899E+02 -1.440941502644E+01 -4.727188505275E-01 1.246778768890E+00 -9.202357842932E-01 7.475972901629E-02 -2.864510909973E-01 -1.442497280247E+00 3.205272715036E-02 6.268803149484E+00 -6.573703113184E-01 -3.056449866140E-01 2.823512606067E+03
 4.438402268645E+02 -7.391450996279E+02 1.975598680103E+00 -1.373627404769E+01 -1.432816803108E+03 2.900829996994E+00 -1.901910530803E-02 -2.904267457842E-01 4.576496581545E-02 -6.906348680581E-01 2.678604987084E-01 -8.050150625415E-02 1.188975098689E+00 1.355429039360E+00 1.278885951001E-02 3.065480950301E+00 2.781822581678E+03
 -2.729153865801E+00 2.013179547905E+00 -8.285434708739E+01 -3.482746495187E-01 2.883965403591E+00 -8.091345515593E+01 3.762937938449E-02 4.810446799436E-02 4.630764739282E+00 3.606613895791E-02 2.733872911852E-02 -9.105364924760E+00 -1.723952100281E-01 -6.520297638074E-02 -4.676013997627E-02 3.848561379860E+00 -5.284160678655E+00 1.926091779982E+02
 -1.197666100173E+03 -4.053598269399E+02 -1.110970856254E+00 1.544094374627E+00 -3.450128283752E-01 -2.529619388579E-02 -1.246240278128E+03 4.574673178898E+02 -3.315822432639E+00 -4.849801781104E+02 -1.730707159527E+01 -5.483710168450E-01 1.067792931277E+01 -4.180635838607E+00 -1.257321604846E+00 -2.070509804891E+01 -3.257668343588E+01 5.716837582538E-02 2.813706620087E+03
 -4.061332086241E+02 -7.050306337507E+02 8.059587382787E-01 -1.427751642100E+00 1.199461940460E-01 2.630525634685E-03 4.592572251789E+02 -7.439538455073E+02 2.737918875358E+00 -1.807224214204E+01 -1.512735334747E+03 4.296544247526E+00 -6.193061600381E+00 1.356537311033E-01 1.859346548726E-02 3.563329975565E+01 5.886500760464E+01 -6.914132476677E-02 -3.632881676051E+01 2.845008442029E+03
 -9.791878331789E-01 7.282421760011E-01 -8.279454843811E+01 2.304579451628E-03 -1.601772337692E-02 -9.194974196023E+00 -3.524674837399E+00 2.730937148696E+00 -8.365487652674E+01 -4.168320888099E-01 4.236289075911E+00 -8.500574592431E+01 -2.716931500254E-01 -3.339378968057E-02 -9.779520139323E+00 -7.988758976749E-02 -1.488173032338E-01 9.007746332546E+00 4.985924484042E+00 -7.604518647159E+00 1.956102377466E+02
 -2.177131215105E-01 -1.137355816902E+00 8.754698624448E-02 -1.223487327144E+03 -4.165549014168E+02 8.696175767427E-02 7.342685283109E-01 9.563382330081E-01 -1.796972222757E-01 -1.220467648752E+03 4.458164455650E+02 -2.380615505072E+00 -7.782417416247E+00 -4.257769985899E+00 1.185049596019E-01 3.868099018932E+01 -3.440368938734E-01 -6.427477419082E-02 4.160684095133E+01 -2.428210739213E-01 -8.554609302064E-03 2.801088395920E+03
 1.227887515785E-01 7.842813181075E-01 7.062812567626E-03 -4.177798461134E+02 -7.116132631336E+02 1.375665068917E+00 1.916236660226E+00 -3.380297908973E-01 -2.048443762468E-02 4.422873577676E+02 -7.372751810594E+02 2.380620113238E+00 7.135148723313E+00 -4.483607286467E-01 -2.352446225372E-01 -6.802090881934E+01 1.120905077934E+00 -4.026026002208E-02 6.873753232024E+01 -1.007942513483E+00 9.178907958148E-02 -1.012263760599E+01 2.813112806698E+03
 8.519329100175E-03 -6.252558059935E-02 -9.139563109149E+00 2.276937287586E-01 1.293683242607E+00 -8.376731816261E+01 -1.676709577823E-01 -3.565742653607E-02 4.785960937420E+00 -2.608157278652E+00 2.565337769523E+00 -8.296452510227E+01 2.495676643098E-01 1.876693570354E-01 4.734911156330E+00 9.425730378816E-02 5.886365221674E-02 8.933797519828E+00 -1.228051013609E-01 7.068623185128E-02 9.145739063983E+00 2.634874517082E+00 -8.580786664313E+00 1.971530299596E+02
 4.658049662373E+00 6.074362858596E-01 9.888136865116E-02 3.768887485812E+00 2.657653107535E-01 2.058490242947E-01 -1.177039406321E+03 -4.118852933339E+02 -1.264563597879E+00 4.727081686163E+00 -2.180404350802E+00 2.821959068132E-01 -5.703684949375E+02 -4.530138167354E+01 -6.671459776864E-01 -2.457790454277E+00 6.518928795715E-01 -1.015186007959E-01 -2.725016304957E+01 -3.166236984512E+01 -2.093385905456E-02 -4.383723167775E+00 -2.559697783497E+00 2.897000918443E-01 2.787719034026E+03
 -2.135364106045E+00 4.680095395548E-01 -4.823696690983E-02 -1.500290071509E+00 -1.554451025724E-01 -1.046526757125E-01 -3.958991956635E+02 -7.537387389619E+02 1.161025232762E+00 -3.081579961630E+00 5.366783258752E-01 -6.570076001783E-02 -6.072246338564E+01 -1.628721116843E+03 8.249756949766E+00 1.389673637932E+00 -8.942527160734E-01 3.768500105178E-02 4.003733983371E+01 5.672576011141E+01 6.245563116536E-03 1.281478614417E+00 1.406616478978E+00 -1.324156103100E-01 5.073327305976E+01 2.996703138413E+03
 3.432017255676E-02 3.295225385231E-01 4.622698330069E+00 -7.236307785381E-02 -3.538202761148E-01 1.373303741822E-01 -9.280716623352E-01 1.982180917058E+00 -7.979647491435E+01 -1.040239016512E+00 -3.732549880019E-01 -9.918512098072E+00 2.978781652657E+00 4.903706915578E+00 -9.474986070802E+01 1.144545490272E-01 -5.980256940035E-02 -2.459623477114E-02 3.322393569831E-01 -1.049193322934E+00 7.746375125425E+00 3.194489010786E-01 4.102781792604E-01 1.289574937007E-02 3.977912003927E+00 -1.070760209615E+01 1.861226943706E+02
 2.418862746191E+00 1.356791434603E+00 -5.535731921525E-02 3.222384246632E+00 6.782959239651E-01 -8.896708125852E-02 8.757039691121E+00 -1.880212067512E+00 1.056218990885E-01 -1.206947942739E+03 -4.092990782849E+02 1.997062223419E-01 -1.314436150318E+03 4.882755905945E+02 -2.163408028583E+00 -2.183116099312E+00 1.549398462606E-01 3.163395941947E-02 3.453861080017E+01 9.214312477932E-01 4.734107060159E-02 -1.767975634515E+01 -3.370226082351E+01 7.487572453741E-02 3.487536096825E+01 5.416251406240E-01 -6.783023982632E-01 2.908710046956E+03
 -2.232590501965E+00 -1.162957182182E+00 5.162499709838E-02 -2.704375292847E+00 -4.501116048380E-01 1.103967441755E-01 -8.251821438992E+00 3.074706396166E+00 -2.373534853267E-01 -3.986366778800E+02 -7.028960303100E+02 1.744870111003E+00 4.690689708887E+02 -8.131744190077E+02 7.291871311691E-01 2.251159075920E+00 -5.273058996841E-01 -7.028762337798E-02 -6.413027970688E+01 1.347532713506E+00 -1.230262290394E-01 3.317436214657E+01 5.986284016068E+01 -5.725669726940E-02 8.669326691294E+01 -6.529714448902E+00 1.808298865669E+00 -7.082253358333E+01 2.833288037338E+03
 1.232846103673E-01 -1.572637117049E-02 4.485521431799E+00 3.078543831389E-02 4.202574028571E-02 4.541024623239E+00 -5.394894379599E-01 -2.941924751875E-02 -9.966887861002E+00 4.847589807827E-01 1.533207788722E+00 -8.750378174674E+01 -3.000791431066E+00 4.258269839774E+00 -9.858873226816E+01 -3.999397601227E-02 -5.986639071000E-02 2.866791380590E-02 3.235837257812E-01 4.149925196891E-01 1.013031985329E+01 -6.456801215217E-02 -1.727068182221E-01 8.612067171823E+00 -1.990685052873E-01 -4.649766493029E-01 6.868001069596E+00 3.912869414519E+00 -1.108510921187E+01 2.155175482399E+02
 6.816655768730E-01 1.485637728176E-01 -5.355497166736E-02 -2.405064782263E-01 -6.734526936653E-01 -7.372715926615E-02 6.922904609748E-01 -1.772447292001E+00 2.403644200797E-01 2.085584445969E-01 6.125160282958E-02 1.396310843858E-01 -2.605871577297E+00 -2.299900332642E+00 -5.029779385086E-01 -1.410161987848E-01 5.033295076519E-01 2.130237924958E-02 -9.563774635129E-01 -7.279352436971E-02 3.281406703110E-02 -6.132134366216E-01 4.600200688248E-01 -8.238539957981E-02 -3.317928324179E+00 3.985692121452E+00 -4.032030533024E-01 5.334052966114E-01 1.271118774091E+00 -9.177806184648E-02 2.771300807250E+03
 2.429543354874E-01 1.561464747204E+00 -3.586701953824E-02 2.071773998551E+00 2.281407987287E+00 -1.037396675228E-01 -3.193123840780E-01 3.354466844705E+00 1.269744639434E-01 -2.213872227742E+00 -1.372084795519E+00 -1.418624567328E-01 2.321562837785E+01 7.920440637360E+00 6.650921944950E-01 -1.291637148820E+00 -1.059243194518E+00 3.102286561725E-02 -1.087816439646E+00 4.554191842624E-01 9.598704891649E-02 3.219673735065E+00 -2.784146453184E+00 -2.827610311235E-02 1.005329041805E+01 -8.637967612976E+00 -5.078254244096E-01 -5.890458548053E+00 5.130015040519E+00 1.834696464261E-01 -2.367054350184E+00 2.835799711367E+03
 -2.484476914259E-01 -7.753025925217E-02 -6.380333237944E-02 -2.961964808438E-01 1.483005746433E-01 -1.282891752338E-01 1.372427708703E-01 2.172924006964E-01 2.134613447872E-01 1.337768998086E-01 -9.107865327309E-03 -5.920454136770E-03 -1.766050617312E+00 -4.565358414189E-01 -3.406006061639E-02 2.529968208262E-01 8.040308892238E-02 4.618486060122E+00 2.007556258115E-01 -1.872694391776E-01 9.938323841884E-02 -3.286414385397E-01 -6.388650888159E-02 1.140041960777E-02 -4.720128969904E-01 4.241544610693E-01 -5.001366711914E-01 5.215634187210E-01 -5.472944102021E-01 2.066100857722E-01 1.552086206853E+00 -1.483592244537E+00 2.010754023730E+02
 -1.198230843785E+00 9.780378221649E-01 -8.808081407139E-03 1.004651818922E-01 2.578179542896E+00 -6.360404004224E-02 -4.351114609251E+00 3.281054340434E+00 -4.234124609480E-02 -2.378555800946E+00 -9.858274831755E-01 -2.003107773494E-01 1.658121429919E+01 9.925511959330E+00 1.003566360953E+00 6.434337303085E-02 -1.524787178071E+00 3.347871800794E-03 1.804556720663E+00 -4.521668719245E-01 7.192380180413E-02 3.648734890490E+00 -1.720354575735E+00 -3.232323381213E-02 1.031579283862E+01 -9.147762204809E+00 -1.607375050449E-01 -3.204849976653E+00 7.525179087683E-03 1.094390978184E-01 5.420169786862E+01 5.128687004150E+01 -8.401553435557E-03 3.182265296781E+03
 4.517540103197E+00 2.757537310632E+00 2.069714337550E-01 7.221331507999E+00 2.469515259917E+00 3.905242419445E-01 2.169292248037E+01 5.087689246892E+00 -5.975617680635E-01 4.800463041977E+00 5.264966520506E-01 -1.130123810902E-01 2.531293219468E+01 -1.379183807862E+01 -5.950029887917E-01 -4.113157136437E+00 -3.097057538401E-01 -2.702545011355E-01 -1.016715841556E+01 7.413200504347E-01 -2.018033505212E-01 -4.736281674716E+00 -6.705868347689E+00 5.576426035461E-01 -3.278778595063E+01 3.305740518535E+00 1.211221603497E+00 -1.899800558090E+01 8.722879951534E+00 6.284449121872E-01 7.609570712858E+00 -1.327270242263E+01 -5.784347494222E-01 1.379304427076E+02 3.044637764934E+03
 -1.475680121833E-01 -1.503359115107E-01 -9.980584514762E-02 -1.628069389754E-01 3.495799606742E-01 -2.234964071772E-01 1.205655660422E+00 2.788627586865E-01 2.374706613923E-01 4.617810806871E-01 3.431971332802E-01 -1.219147325700E-01 -2.463171656121E+00 -1.778718071978E+00 6.502531145848E-01 4.185998370929E-01 1.096960465964E-01 5.438013430341E-02 9.033830908960E-02 -3.591393517454E-02 1.307092004924E-01 -7.404143759694E-01 -1.821341605637E-01 -1.270091265136E-02 -2.780915415296E+00 9.182290686682E-01 -6.804581674174E-01 3.930760610944E-01 -7.982017887608E-01 1.987029245401E-01 -1.485859387967E+00 -1.441910229376E+00 1.057017685809E+01 4.901553395855E+00 -3.615618335502E+00 1.911191938207E+02
 -2.052569087046E+01 -3.413973872681E+01 8.410241859575E-03 3.985580845647E+01 -5.554750089331E-01 1.108977728210E-01 -1.136111554039E+00 6.569199573978E-01 -6.689080540279E-02 1.443691824025E-01 3.286723541523E-01 -1.733321335316E-02 -4.842704883544E+00 -4.354743877228E-01 1.026759635320E-01 -1.247722917883E+03 -4.324292286443E+02 -8.067925057383E-01 7.220369725643E-01 -3.184998661054E-01 -4.348159034418E-02 -2.995384215987E-01 5.723745218205E-01 4.587050729198E-02 1.339294681207E+00 -3.533131302403E-01 -2.177943831119E-02 1.669946424579E+00 -1.022812541573E+00 7.178573935117E-02 -1.884802354164E+01 3.535204586567E+01 -1.819317489804E-01 6.341827328728E-01 3.010911709784E+00 -1.953626138291E-01 2.782914021918E+03
 3.522202211746E+01 6.084614360722E+01 -2.646607912413E-02 -6.806773196154E+01 8.291001084513E-04 -7.597265018497E-02 -2.430595072352E+00 9.281338114964E-01 -4.915128027447E-02 5.091360989985E-01 3.546294794723E-01 6.859322852567E-03 -5.919512931307E+00 8.635409160289E-02 -3.292586004932E-02 -4.372093725669E+02 -7.279311168078E+02 4.295732292685E-01 1.105794976890E+00 -2.488872343239E-01 5.895675339541E-03 -5.659508960900E-01 8.768160577667E-01 2.793345440141E-02 2.416421674476E+00 -1.185749622885E+00 7.739421214327E-02 1.864192161461E+00 -1.944174666884E+00 4.217216928571E-02 -3.249410517804E+01 5.947608844776E+01 -3.215976900422E-01 -7.484444698457E-01 2.927699501726E+00 -2.033300076929E-01 2.113177408323E+01 2.802077426958E+03
 -5.799428477775E-02 -1.769941538828E-01 9.720573695891E+00 2.470044882317E-01 -2.298476117360E-02 9.242271570379E+00 -1.229055141235E-01 -9.961892530672E-02 -7.151040107217E-02 -9.818302273894E-02 -8.181712756212E-03 8.386019244847E-03 6.053941864317E-01 2.388359464911E-01 -4.388900330292E-02 -9.015223179511E-01 5.368045536332E-01 -8.383092180761E+01 -2.659124210137E-02 6.285280538659E-02 4.586280663478E+00 1.233846050087E-01 -5.671643838183E-03 4.592477539968E+00 3.154070246387E-01 -1.539368107887E-01 1.734265354609E-01 -1.514615407374E-01 1.787879173969E-01 -5.698493199729E-02 -1.378398505211E-01 -2.125309621442E-01 8.977156492697E+00 -8.423109120308E-02 5.876226346419E-01 -2.914695550221E-01 2.902129233494E+00 -3.273101049177E+00 1.916545888070E+02
 -2.431113399824E+00 -9.142046325660E-01 1.088397208934E-01 -2.063877965969E+01 -3.052765550181E+01 2.233228217270E-01 -4.119540247969E+00 4.294256445729E+00 -4.736006295628E-01 1.697447125393E+00 2.224913091509E+00 -1.719369053638E-01 -1.735362769508E+01 1.162325713093E+00 1.848215511542E-01 2.144251825426E+00 -1.811587978143E+00 -1.070212967249E-01 4.161214155290E+00 -9.860408484469E-01 -1.318785731178E-01 -2.011975105129E+00 5.182599711929E-01 1.853869703069E-01 4.823316476150E+00 -6.433937110438E+00 9.568347141514E-01 5.248453613706E+00 -9.002681401751E+00 1.618283462724E-01 4.267285683457E+01 -7.384852881764E+01 -1.225708417555E+00 -3.304338043257E+01 3.531888674116E+01 -2.343579440939E+00 3.692365097794E+01 6.423433685003E+01 2.753342924786E-01 2.724906398336E+03
 1.858766934127E+00 1.030835726599E+00 -5.029916560603E-02 3.621704138253E+01 5.508515537067E+01 -1.933129124921E-01 1.533352851906E+00 -1.386340094616E+00 2.109965086992E-01 -1.820291245940E+00 -2.330195250558E+00 2.898637213232E-02 1.493338814221E+01 2.501958160178E+00 3.664025259940E-01 -3.416433609029E+00 -6.146415199812E-01 5.867753062189E-02 -2.634864000714E+00 6.294624805663E-01 6.775888221128E-02 3.185098928755E+00 -5.491946306753E-03 -1.035015618078E-01 3.134182230922E+00 6.648687150894E-01 -6.494804767510E-01 -3.012367919442E+00 6.764121944388E+00 -4.163819453490E-02 -4.519188302375E+00 1.086283343895E-01 3.174838279023E-01 -4.334250112255E+01 7.409479010770E+01 3.280721452527E+00 4.282716556165E-01 8.576847816929E-01 -1.736829575115E-01 -3.160801684966E+01 2.796170963848E+03
 -8.270973939569E-03 1.906736574073E-02 3.888488721271E-02 -2.010294850491E-01 -3.561445475879E-02 8.516670405929E+00 -2.312315704509E-01 -3.732066813443E-02 -5.419511351198E-02 -1.934783842495E-01 -2.279236040587E-01 3.094883999936E-01 8.580096288859E-01 5.010009305881E-01 -7.316650773366E-01 -2.231178259101E-04 -2.745494481543E-02 -8.834227748900E+00 -2.843916818936E-02 -8.146771082199E-02 -1.110307388057E-01 2.047308896666E-01 -1.470755353827E-01 4.432339441437E+00 7.282524661831E-01 -1.504275911853E-01 3.358222765694E-01 -1.652755997308E-01 2.628623077395E-01 -3.103648254447E-01 2.061369431542E-01 -5.397647454668E-01 9.324909549250E+00 -5.526289345153E-01 2.879023359955E-01 8.420095050704E+00 -1.079081030951E-02 1.236598136912E-01 8.495435965191E+00 9.353363929971E-01 -4.309456726779E+00 1.947374468921E+02
 -9.334384776007E+00 -2.173373187622E+00 6.999348147823E-02 -6.773316574377E+00 9.073915840762E-01 5.654768048749E-02 -2.935628252127E+01 1.036895052859E+01 -5.849318342528E-01 -3.282777398474E+00 1.646255917410E+00 -5.180093868207E-01 -2.629776689276E+01 2.457996776124E+01 1.886545572653E+00 5.035914543294E+00 -2.649282545465E+00 -1.065082644515E-01 1.727886815379E+01 -2.589328830812E+00 -2.812551671210E-03 4.517582042889E+00 4.434595795675E+00 7.608387781654E-02 4.159156594639E+01 -2.677496151896E+01 7.889781350258E-01 1.719914629577E+01 -2.273348934346E+01 2.731780148006E-01 -1.176630374417E+03 4.297010153405E+02 -1.422333063395E+00 -6.638602490352E+02 -2.373825037726E+01 -9.053469178873E-01 -1.004628478196E+00 -5.570922621848E+00 1.676959861574E-01 -3.246637681183E+01 1.232950007828E+01 -3.480887579259E-01 3.100764245560E+03
 -6.191084817544E+00 -3.967101164631E+00 -1.950150118279E-01 -9.308026878616E+00 -4.339841707584E+00 -3.293806868494E-01 -2.676998385526E+01 -5.690865023099E+00 5.332076282104E-01 -3.919433592290E+00 4.864928889162E-01 1.543143430296E-01 -4.560350843317E+01 1.233470484703E+01 2.629625223994E-01 5.342730440687E+00 3.972118943785E-01 2.573714971468E-01 1.371521910001E+01 -1.425982742424E+00 1.811690474039E-01 3.544032844453E+00 9.655288654142E+00 -5.264720430077E-01 3.178286192404E+01 -1.313949936824E+00 -9.852061689449E-01 2.587971855166E+01 -1.568215477732E+01 -6.559091198572E-01 4.015265254998E+02 -8.159959072423E+02 2.243304798278E+00 6.790777455798E+01 -1.454129019243E+03 9.527153674057E+00 -3.971660108871E+00 -4.007799327652E+00 -4.815047761162E-01 6.004093086475E+00 -3.337067256348E+00 -3.963149933893E-01 2.863927131933E+01 3.001881885270E+03
 5.237136527911E-01 1.660626788066E-01 1.154879258954E-01 7.262318739778E-01 -4.485412573875E-01 2.333608155163E-01 -2.409345967448E-01 -4.585817231392E-01 -3.873730803429E-01 -1.449129518515E-01 1.317635423971E-01 -2.818437109979E-02 2.995914650133E+00 5.874578297060E-01 1.913952983363E-01 -5.846786583700E-01 -2.231753058220E-01 -4.769259929892E-02 -3.819012485999E-01 4.170705930908E-01 -1.608497333899E-01 5.976599352366E-01 3.069430561538E-01 -4.028606565574E-02 6.401155870798E-01 -7.884213898165E-01 8.692960550468E-01 -9.606493877801E-01 9.582223206564E-01 -3.605336893635E-01 -6.656184631647E-01 3.328273223723E+00 -8.659955727406E+01 -1.664948291106E+00 4.678413676019E-01 -8.269959773572E+01 2.038523432076E-01 5.299436193726E-01 4.796771010165E+00 3.288379483558E+00 -9.404578211203E-01 -9.950427121174E+00 3.097087075923E+00 -9.273218901580E+00 1.934425379594E+02
 -1.676810721690E-01 -3.833682027712E-01 2.493995266790E-02 -7.672923394521E-01 -1.293052742789E+00 8.153860921373E-02 1.069867916528E+00 -2.502715713183E-01 -1.321200484741E-01 -4.608605073665E-02 -1.660018255279E-01 -1.976474537206E-02 1.790010082933E+00 -8.870483356432E-01 -3.692012741316E-03 -1.938229132779E+01 3.628607433279E+01 -8.964114980159E-02 -4.560236739534E-01 3.172765452440E-01 -2.843319001849E-02 -4.787346197517E-01 -4.230242419015E-01 7.184843686110E-02 -2.194147945761E+00 1.058797798860E+00 3.031429923220E-01 -1.071597497541E+00 8.374525755661E-01 4.830805695162E-02 -1.228977904504E+03 -4.193541875419E+02 -6.514187467672E-01 1.921649824199E+00 -4.420670269057E+00 1.268000221890E+00 -1.179071097487E+03 4.201153195024E+02 -1.512668890037E+00 -4.675576481514E+02 -2.237951841853E+01 -1.971841959008E-01 -1.683345237649E+01 -3.022111226424E+01 -1.584538086855E-01 2.760707002915E+03
 5.700121036278E-01 -5.870652003719E-01 7.945094881836E-02 -1.988786111033E+00 1.868775580408E+00 9.601585683812E-02 3.863087831439E+00 -4.169174398802E-01 -3.221445436679E-01 3.324649615929E-01 8.797655048484E-02 -6.892565075569E-02 2.208706890537E+00 -2.765223520169E+00 1.097047257282E-01 -3.148211393736E+01 5.981143861587E+01 -1.594947634745E-01 -8.373038823558E-01 1.818963291332E-01 -8.866749042377E-02 -7.015284039136E-01 -1.518117766587E+00 1.417869697248E-01 -7.173941330172E+00 2.424309745466E+00 6.886411332976E-01 -2.041655627363E+00 1.591054504502E-01 6.810721114932E-02 -4.236254618186E+02 -7.089966247657E+02 2.034564718316E-01 3.246486677635E+00 -1.247736844079E+01 -1.440943788065E+00 4.217580540039E+02 -7.102100001507E+02 1.440177703839E+00 -1.615507641668E+01 -1.497530266174E+03 2.111968424052E+00 4.012493733091E+01 6.981795964564E+01 -3.752783229172E-01 1.589679503294E+01 2.797022445093E+03
 1.279450316615E-01 3.113757701875E-02 4.611742643348E+00 8.299928640885E-02 -3.145952391138E-02 -8.766472466978E+00 -3.236968988185E-01 -2.018550797359E-01 -1.544695390275E-01 -2.034920412994E-01 -6.248464233457E-02 -6.182669594519E-03 1.350602802159E+00 6.020961195347E-01 -7.054690537931E-02 -6.535703128064E-02 -2.874856991087E-02 8.914567698945E+00 -7.516189217719E-02 1.186076122791E-01 -6.689935217824E-02 3.348352614546E-01 1.092143097171E-02 -1.094081227895E-02 8.384822294747E-01 -3.714731499037E-01 3.684223246089E-01 -3.114950563953E-01 4.179692319535E-01 -1.080685864839E-01 -6.822167390735E-01 -1.919275402781E-01 -8.388280011285E+01 -1.774893687703E-01 1.530757554208E+00 -1.082765054425E+01 -1.574980940777E+00 1.263971630598E+00 -8.027081136490E+01 6.231022112002E-01 1.402100039407E+00 -8.256158046616E+01 3.050035984851E-01 -1.368139173843E+00 5.125204414425E+00 2.459461004874E+00 -2.783662987819E+00 1.929229118102E+02
 2.561229806216E+00 2.142738118242E+00 -1.302091868495E-01 2.110440016015E+00 1.652020755239E+00 -2.250657325481E-01 4.332481380511E+00 -2.971787327487E+00 5.396651903428E-01 -3.584319972752E+00 -3.264125457430E+00 1.428134536828E-01 3.248066233082E+01 4.221142791276E+00 1.919763134351E-02 -2.224014848780E+00 -2.870400462154E-01 1.256266177580E-01 -5.094250754455E+00 8.464119957881E-01 1.676882695976E-01 4.240383350743E+00 -3.106057397880E+00 -2.066316036420E-01 1.877541995306E+00 2.586587384629E+00 -1.218214340339E+00 -8.209904406823E+00 1.304719828006E+01 -8.561674636866E-02 3.319080161476E+00 -5.554072286147E+00 1.565793560606E+00 -1.483632542959E+03 -5.231597179610E+02 1.291040543113E+00 1.325173185468E+00 3.108467506605E+00 -4.182229910950E-01 -1.227647125182E+03 4.464746173602E+02 -1.352732898529E+00 6.816010975307E+01 1.476480371772E+00 -3.128729343813E+00 3.854490284709E+01 1.551467826543E+00 -9.999518360468E-01 3.091897073240E+03
 -4.924301596703E+00 -1.786025978115E+00 -1.190773543070E-02 -3.722134884584E+00 3.902140521114E-01 -8.164658819779E-02 -1.488645935004E+01 5.746668933268E+00 -1.726891252470E-02 -2.281243037127E-01 2.750302398347E+00 -1.714814189139E-01 -2.214191146831E+01 1.122254661586E+01 4.830743531235E-01 3.504431220777E+00 -7.575100506841E-01 4.399201878931E-03 8.816855432015E+00 -9.509088245952E-01 1.758839436610E-02 -1.652664331747E-01 2.556625401071E+00 -1.108940452405E-01 2.564587215352E+01 -1.562890509012E+01 9.321964856613E-02 1.091806232628E+01 -1.278894558097E+01 -8.255611321459E-02 8.126145927313E+00 -1.250771961627E+01 -3.208838399979E-01 -5.698045687434E+02 -9.007632355753E+02 -1.524887387448E+00 -1.383989374090E+00 -4.097783692358E+00 -3.566323044876E-02 4.190072898388E+02 -7.469466523938E+02 1.106744555947E+00 -1.563087776313E+02 -1.703840901533E+01 2.042212531547E+00 7.490604366596E+01 4.500166210796E+00 -1.167973447097E-01 1.341983958640E+02 2.835560935429E+03
 -2.189739614803E-01 -4.844196546853E-02 -3.851789415517E-02 -2.121004491323E-01 -7.438747566277E-02 4.378105401573E+00 -3.788113606925E-01 8.318827532603E-02 1.778869047903E-01 1.480730569024E-02 -7.476142627886E-02 1.654041859190E-01 -1.528777865882E+00 5.274958984123E-02 -4.886484611859E-01 5.835032953758E-02 5.237521133601E-02 2.397242783697E-02 2.316223965787E-01 -1.706119375151E-01 3.455315128815E-02 -1.589027382503E-01 1.326112339750E-01 3.624300076935E-02 4.252467267755E-01 2.146726623719E-01 -2.874468119290E-01 5.917313207517E-01 -4.130365780693E-01 4.898813778540E-02 5.454076323638E-01 9.041000068531E-01 -1.026110328874E+01 -1.130061209558E-01 1.251381816220E+00 -9.337631295771E+01 4.297173134857E-03 -5.053173252584E-02 4.450554219907E+00 -8.359248714816E-01 9.073329718287E-01 -8.794551703399E+01 -3.356781600062E-01 -1.625782557502E+00 7.347234715599E+00 -6.702558260236E-01 -2.103935062354E-02 1.115280739123E+01 -5.934683543947E-01 -4.052851558719E+00 2.060583881910E+02
 7.326330618417E-01 1.158980410914E+00 -6.808446691280E-02 -1.230135499704E+03 4.478586939402E+02 -1.840271801362E+00 1.077057888489E+00 -7.031251330985E-01 2.778145068940E-01 -8.100354837047E-01 -5.377093264210E-01 9.244808089505E-03 1.091864445904E+01 7.531684268163E-01 3.266610542436E-01 3.919728123030E+01 -2.321450216197E-01 1.007231951696E-01 -1.713136453690E+00 -8.896841494202E-02 7.830640195089E-02 -1.740540872415E+01 3.274815058156E+01 -2.468152390754E-01 1.211705610716E+00 2.357096761754E-01 -6.795379677962E-01 -2.876417669537E+00 5.133380226631E+00 -6.601160632774E-02 -5.539356240660E-01 -2.594209166461E+00 6.164565674306E-01 -1.763799747364E+00 1.913635500728E+00 1.285452650448E+00 -3.852562215615E-02 5.533094487030E-03 -2.109920729945E-01 -1.129889928428E+03 -3.900605135274E+02 -8.459945896127E-02 8.046112754922E+00 1.196505378649E+00 -1.129867491899E+00 3.859205376221E+01 1.080550113717E+00 -5.923548933287E-01 -2.728908023524E+01 -2.924851943518E+01 -2.734484705843E-04 2.711911815036E+03
 2.337498317654E-01 -5.891766988823E-02 -1.179510703443E-02 4.541088675808E+02 -7.378182758822E+02 1.771061809023E+00 1.576904884404E+00 -1.981592182117E+00 8.233634563573E-02 5.757262953842E-01 2.343511905404E-01 9.622517081404E-02 -1.124935852167E+00 -3.212209078429E+00 -5.335346577092E-01 6.689869091095E+01 -4.592735606873E-01 4.590856767068E-02 -4.084849018695E-01 3.542052622809E-02 1.683307290507E-02 -3.581303111340E+01 5.900216933482E+01 -1.327434804724E-01 -6.853052215953E+00 4.421807812316E+00 1.728440643105E-01 -9.283366217108E-01 -3.392295467560E-01 -8.550454822338E-02 -2.517762166670E+00 4.873765464689E+00 7.965661258947E-02 6.485860343976E+00 -5.680479600827E-01 -8.163774637192E-01 2.132218061270E-01 9.855435285630E-01 -1.678987861718E-02 -3.850245504737E+02 -6.763848508273E+02 1.226847949946E+00 1.629948714051E+01 3.826009556286E-01 -4.960071825875E-02 -6.637550097075E+01 -7.892029671977E-01 -7.793402335370E-03 3.174954696022E+01 6.210721733282E+01 5.568216851513E-01 -4.453547989072E+01 2.825853405034E+03
 -1.596553607456E-01 4.109770965934E-03 4.557125210901E+00 -1.943097392859E+00 1.893680036690E+00 -8.223252392696E+01 -4.605079827342E-02 1.551481526383E-01 8.474686738612E-02 6.797402012972E-02 2.678118529406E-02 4.716845937051E+00 -8.878804664419E-01 -1.253284972944E-01 -2.305227424672E-01 2.866591137204E-02 8.597960717557E-03 8.468310967459E+00 1.338459042713E-01 -1.290797383612E-01 1.322400644251E-02 -6.697459333117E-02 -1.359306762651E-01 9.999706491264E+00 -7.327974244434E-02 7.794006268111E-02 -1.297080038835E-01 2.599170889340E-01 -3.150071332946E-01 -4.330721566962E-02 2.816704285548E-01 1.060288132036E-01 4.609542599650E+00 -4.202625041105E-02 -4.531474063212E-01 5.193412182324E+00 -9.099382476665E-02 -1.139234119464E-01 -8.954811730508E+00 -9.469470211068E-02 1.243503410560E+00 -7.710370840017E+01 -7.880400026766E-01 5.012425480203E-01 -2.471238917239E-01 -3.411801723767E-02 -1.915652868171E-01 8.472766786455E+00 5.376803295384E-01 -4.346827846417E-01 7.900243030281E+00 1.663166064978E+00 -6.266550321163E+00 1.867630664919E+02