#BIOSYM hessian 1
@Type: Hessian Update
@Units
 distance: 	A
 energy: 	Kcal/Mol
#header
@natom 67

#label
C1      C2      C3      C4      C5      C6      C7      C8      C9      C10     C11     C12     C13     C14     C15     C16     C17     C18     C19     C20     C21     C22     C23     H24     C25     C26     C27     C28     C29     C30     C31     C32     C33     C34     C35     C36     C37     C38     C39     C40     C41     C42     C43     C44     C45     C46     C47     C48     C49     H50     H51     H52     H53     H54     H55     H56     H57     H58     H59     H60     H61     H62     H63     H64     O65     H66     H67

#element
C  C  C  C  C  C  C  C  C  C  C  C  C  C  C  C  C  C  C  C  C  C  C  H  C  C  C  C  C  C  C  C  C  C  C  C  C  C  C  C  C  C  C  C  C  C  C  C  C  H  H  H  H  H  H  H  H  H  H  H  H  H  H  H  O  H  H 

#matrix
201
 2.783737719716E+03
 -2.392941248158E+01 2.819446301463E+03
 0.000000000000E+00 0.000000000000E+00 0.000000000000E+00
 3.992963587957E+01 6.712282577030E+01 0.000000000000E+00 2.791435041855E+03
 -4.257496281612E-01 -9.067185011497E-01 0.000000000000E+00 -2.280928396291E+01 2.768529872775E+03
 0.000000000000E+00 0.000000000000E+00 0.000000000000E+00 0.000000000000E+00 0.000000000000E+00 0.000000000000E+00
 -1.969652442851E+01 3.491205678545E+01 0.000000000000E+00 2.003544680928E-02 -2.044207140699E-02 0.000000000000E+00 2.811896672250E+03
 -3.350813028306E+01 5.940244765816E+01 0.000000000000E+00 1.520527457830E-02 -6.676105732884E-02 0.000000000000E+00 -3.199838028633E+01 2.819522680554E+03
 0.000000000000E+00 0.000000000000E+00 0.000000000000E+00 0.000000000000E+00 0.000000000000E+00 0.000000000000E+00 0.000000000000E+00 0.000000000000E+00 0.000000000000E+00
 3.868513372821E+01 -6.864915520993E+01 0.000000000000E+00 -1.955053849049E+01 3.533778458847E+01 0.000000000000E+00 4.222388324901E+01 7.184928009347E+01 0.000000000000E+00 2.788271733782E+03
 -4.988005078612E-01 8.797043010079E-01 0.000000000000E+00 -3.275590973828E+01 5.917963537964E+01 0.000000000000E+00 -5.455077470576E-01 -9.194932308386E-01 0.000000000000E+00 -1.963450190925E+01 2.833543624692E+03
 0.000000000000E+00 0.000000000000E+00 0.000000000000E+00 0.000000000000E+00 0.000000000000E+00 0.000000000000E+00 0.000000000000E+00 0.000000000000E+00 0.000000000000E+00 0.000000000000E+00 0.000000000000E+00 0.000000000000E+00
 -1.435922002545E-02 2.743039664001E-02 0.000000000000E+00 -9.515052227358E-03 1.784305939977E-02 0.000000000000E+00 4.170443047976E+01 -7.350453325391E+01 0.000000000000E+00 -2.153364958065E+01 3.853540835007E+01 0.000000000000E+00 2.634619830260E+03
 1.352097937306E-02 -6.167013085234E-02 0.000000000000E+00 2.476951261727E-02 -5.382989865968E-02 0.000000000000E+00 1.693719734358E-01 -3.578895175161E-01 0.000000000000E+00 -3.517093079024E+01 6.288094612689E+01 0.000000000000E+00 -2.217120494014E+02 2.901514354303E+03
 0.000000000000E+00 0.000000000000E+00 0.000000000000E+00 0.000000000000E+00 0.000000000000E+00 0.000000000000E+00 0.000000000000E+00 0.000000000000E+00 0.000000000000E+00 0.000000000000E+00 0.000000000000E+00 0.000000000000E+00 0.000000000000E+00 0.000000000000E+00 0.000000000000E+00
 -1.227564334722E+03 4.489268295645E+02 0.000000000000E+00 -4.650782832396E+02 -1.233818976033E+01 0.000000000000E+00 8.194761838596E-03 1.557896662269E-02 0.000000000000E+00 5.094604424695E-03 -3.454969246816E-02 0.000000000000E+00 -1.225284116779E-02 2.411055664357E-02 0.000000000000E+00 2.822573017864E+03
 4.434970697687E+02 -7.438340122108E+02 0.000000000000E+00 -1.147161536534E+01 -1.432968965291E+03 0.000000000000E+00 5.429661167345E-02 1.319653544935E-01 0.000000000000E+00 5.584886269730E-02 1.521121597747E-02 0.000000000000E+00 -3.627557525426E-02 1.033701550480E-01 0.000000000000E+00 -8.740454287969E-01 2.781398996261E+03
 0.000000000000E+00 0.000000000000E+00 0.000000000000E+00 0.000000000000E+00 0.000000000000E+00 0.000000000000E+00 0.000000000000E+00 0.000000000000E+00 0.000000000000E+00 0.000000000000E+00 0.000000000000E+00 0.000000000000E+00 0.000000000000E+00 0.000000000000E+00 0.000000000000E+00 0.000000000000E+00 0.000000000000E+00 0.000000000000E+00
 -1.195867192219E+03 -4.108739856453E+02 0.000000000000E+00 2.153888040747E-02 -6.571790881832E-02 0.000000000000E+00 -1.259755495352E+03 4.499214981235E+02 0.000000000000E+00 -4.857337895326E+02 -1.541918630430E+01 0.000000000000E+00 -1.900173594423E-02 -4.172296940632E-02 0.000000000000E+00 -1.954522904311E+01 -3.275244786325E+01 0.000000000000E+00 2.820696955851E+03
 -4.104672378448E+02 -6.990918085290E+02 0.000000000000E+00 -3.579645868136E-02 2.250558917395E-02 0.000000000000E+00 4.517200967100E+02 -7.509339860237E+02 0.000000000000E+00 -1.752008808131E+01 -1.513093446010E+03 0.000000000000E+00 -4.200923809658E-02 4.194135550914E-02 0.000000000000E+00 3.473235550513E+01 5.814082610172E+01 0.000000000000E+00 -2.630454225615E+01 2.845300437864E+03
 0.000000000000E+00 0.000000000000E+00 0.000000000000E+00 0.000000000000E+00 0.000000000000E+00 0.000000000000E+00 0.000000000000E+00 0.000000000000E+00 0.000000000000E+00 0.000000000000E+00 0.000000000000E+00 0.000000000000E+00 0.000000000000E+00 0.000000000000E+00 0.000000000000E+00 0.000000000000E+00 0.000000000000E+00 0.000000000000E+00 0.000000000000E+00 0.000000000000E+00 0.000000000000E+00
 -5.363567205592E-03 5.787285595114E-02 0.000000000000E+00 -1.224006532640E+03 -4.179682901102E+02 0.000000000000E+00 1.222278370860E-03 2.531274614747E-02 0.000000000000E+00 -1.222156370563E+03 4.428566931312E+02 0.000000000000E+00 3.074783195872E-06 1.639674697113E-02 0.000000000000E+00 3.704769752912E+01 -5.162142875421E-01 0.000000000000E+00 4.175816677046E+01 -5.559995310206E-01 0.000000000000E+00 2.807870139006E+03
 9.417263698217E-03 -1.059169044775E-02 0.000000000000E+00 -4.205096998509E+02 -7.021708076119E+02 0.000000000000E+00 -1.118318942898E-02 6.267880623310E-04 0.000000000000E+00 4.410830785807E+02 -7.396128388186E+02 0.000000000000E+00 1.615415098455E-03 2.658457190319E-05 0.000000000000E+00 -6.688487722769E+01 7.906474423478E-01 0.000000000000E+00 7.002121722608E+01 -8.773919140044E-01 0.000000000000E+00 -1.373407918537E+00 2.808187055396E+03
 0.000000000000E+00 0.000000000000E+00 0.000000000000E+00 0.000000000000E+00 0.000000000000E+00 0.000000000000E+00 0.000000000000E+00 0.000000000000E+00 0.000000000000E+00 0.000000000000E+00 0.000000000000E+00 0.000000000000E+00 0.000000000000E+00 0.000000000000E+00 0.000000000000E+00 0.000000000000E+00 0.000000000000E+00 0.000000000000E+00 0.000000000000E+00 0.000000000000E+00 0.000000000000E+00 0.000000000000E+00 0.000000000000E+00 0.000000000000E+00
 -1.084893558507E-02 4.389436983422E-02 0.000000000000E+00 -1.983890480901E-02 3.202578307258E-02 0.000000000000E+00 -1.198687721536E+03 -4.057887413402E+02 0.000000000000E+00 3.159912048856E-02 -3.820175748746E-02 0.000000000000E+00 -5.218737782776E+02 4.113801590743E+00 0.000000000000E+00 -1.897395522580E-02 -6.733760369686E-02 0.000000000000E+00 -1.982301720238E+01 -3.370398440139E+01 0.000000000000E+00 -7.946319409948E-03 7.299276418661E-03 0.000000000000E+00 2.773083114160E+03
 -1.265367455348E-02 5.209554765893E-02 0.000000000000E+00 -1.222998231031E-02 4.858272508648E-02 0.000000000000E+00 -4.146598951276E+02 -7.011586788923E+02 0.000000000000E+00 -1.162898409649E-02 -1.622344242201E-02 0.000000000000E+00 5.720452647556E+00 -1.636085561557E+03 0.000000000000E+00 -1.612485415817E-02 -9.566665040464E-02 0.000000000000E+00 3.501040771645E+01 5.946553208057E+01 0.000000000000E+00 -2.370298254876E-02 -1.980839231870E-03 0.000000000000E+00 -2.991689660577E+01 2.958773637119E+03
 0.000000000000E+00 0.000000000000E+00 0.000000000000E+00 0.000000000000E+00 0.000000000000E+00 0.000000000000E+00 0.000000000000E+00 0.000000000000E+00 0.000000000000E+00 0.000000000000E+00 0.000000000000E+00 0.000000000000E+00 0.000000000000E+00 0.000000000000E+00 0.000000000000E+00 0.000000000000E+00 0.000000000000E+00 0.000000000000E+00 0.000000000000E+00 0.000000000000E+00 0.000000000000E+00 0.000000000000E+00 0.000000000000E+00 0.000000000000E+00 0.000000000000E+00 0.000000000000E+00 0.000000000000E+00
 7.462608851516E-03 -3.562885882210E-03 0.000000000000E+00 7.480240069744E-03 1.526101000068E-02 0.000000000000E+00 5.383385133911E-03 -3.919750401226E-03 0.000000000000E+00 -1.198297876504E+03 -4.150693972289E+02 0.000000000000E+00 -1.331851960038E+03 4.970237689623E+02 0.000000000000E+00 -4.698733353216E-04 -8.787326017500E-03 0.000000000000E+00 3.854346870125E+01 -4.948623883132E-01 0.000000000000E+00 -1.940500059593E+01 -3.252680643377E+01 0.000000000000E+00 4.968832831870E+01 2.214910429396E-01 0.000000000000E+00 2.880912682681E+03
 -3.030184272069E-02 9.981487802509E-02 0.000000000000E+00 -3.256625159400E-02 1.025626313657E-01 0.000000000000E+00 2.392414104154E-02 5.050678670896E-02 0.000000000000E+00 -4.066182305997E+02 -7.009650560705E+02 0.000000000000E+00 4.950754551331E+02 -8.256799781223E+02 0.000000000000E+00 -3.925621695090E-02 -1.745794992552E-01 0.000000000000E+00 -6.882060631696E+01 8.372282321621E-01 0.000000000000E+00 3.464695203124E+01 5.808771472887E+01 0.000000000000E+00 8.117581224893E+01 3.356073695437E-01 0.000000000000E+00 -9.686273539065E+01 2.847102665734E+03
 0.000000000000E+00 0.000000000000E+00 0.000000000000E+00 0.000000000000E+00 0.000000000000E+00 0.000000000000E+00 0.000000000000E+00 0.000000000000E+00 0.000000000000E+00 0.000000000000E+00 0.000000000000E+00 0.000000000000E+00 0.000000000000E+00 0.000000000000E+00 0.000000000000E+00 0.000000000000E+00 0.000000000000E+00 0.000000000000E+00 0.000000000000E+00 0.000000000000E+00 0.000000000000E+00 0.000000000000E+00 0.000000000000E+00 0.000000000000E+00 0.000000000000E+00 0.000000000000E+00 0.000000000000E+00 0.000000000000E+00 0.000000000000E+00 0.000000000000E+00
 9.682208156566E-01 -2.812606158593E+00 0.000000000000E+00 -1.129385060637E+00 -2.861645309298E+00 0.000000000000E+00 -3.623328021524E-01 -8.478213663358E-01 0.000000000000E+00 -1.131849289669E+00 2.141286753052E-01 0.000000000000E+00 5.012888248594E-01 -9.644498227530E-01 0.000000000000E+00 3.413922234582E-01 5.293828140287E+00 0.000000000000E+00 -4.398381105475E-01 6.781121838863E-01 0.000000000000E+00 9.627103809387E-01 7.685283114496E-01 0.000000000000E+00 4.041720236824E-01 6.412933588766E-01 0.000000000000E+00 -8.431645557820E-02 1.432390747608E+00 0.000000000000E+00 2.794135154948E+03
 6.105899603958E-01 -1.715918598552E+00 0.000000000000E+00 -2.443361031176E-01 -1.209358308469E+00 0.000000000000E+00 -1.997546747317E-01 -6.366653555271E-01 0.000000000000E+00 -5.744146034338E-01 1.290546138672E-01 0.000000000000E+00 2.003873232591E-01 -4.984099988159E-01 0.000000000000E+00 6.259121791389E-01 2.860470430313E+00 0.000000000000E+00 -2.200726380631E-01 6.309757313895E-01 0.000000000000E+00 4.261190101429E-01 8.486361036482E-02 0.000000000000E+00 2.271146828885E-01 4.389851522291E-01 0.000000000000E+00 3.804496223504E-02 8.025736991713E-01 0.000000000000E+00 -2.457089029428E+01 2.792698266490E+03
 0.000000000000E+00 0.000000000000E+00 0.000000000000E+00 0.000000000000E+00 0.000000000000E+00 0.000000000000E+00 0.000000000000E+00 0.000000000000E+00 0.000000000000E+00 0.000000000000E+00 0.000000000000E+00 0.000000000000E+00 0.000000000000E+00 0.000000000000E+00 0.000000000000E+00 0.000000000000E+00 0.000000000000E+00 0.000000000000E+00 0.000000000000E+00 0.000000000000E+00 0.000000000000E+00 0.000000000000E+00 0.000000000000E+00 0.000000000000E+00 0.000000000000E+00 0.000000000000E+00 0.000000000000E+00 0.000000000000E+00 0.000000000000E+00 0.000000000000E+00 0.000000000000E+00 0.000000000000E+00 0.000000000000E+00
 7.002920394693E-03 -1.660828714942E-01 0.000000000000E+00 -7.656214511020E-01 -8.883386244382E-01 0.000000000000E+00 -1.159132309879E-01 2.007383643032E-02 0.000000000000E+00 -3.446625189730E-01 6.635097524884E-02 0.000000000000E+00 1.401433719043E-01 -2.668321783853E-01 0.000000000000E+00 -4.166014125598E-01 8.457563818246E-01 0.000000000000E+00 -4.337795512944E-03 -2.533011390573E-01 0.000000000000E+00 3.238208561750E-01 5.504016768118E-01 0.000000000000E+00 2.003093488568E-01 5.872476558584E-02 0.000000000000E+00 -6.481325433337E-02 2.186317758527E-01 0.000000000000E+00 7.097716212531E+01 7.575402085663E+01 0.000000000000E+00 2.813209726048E+03
 -2.981673401526E-01 4.035392496376E-01 0.000000000000E+00 -5.616341685600E-01 -3.178177481254E-01 0.000000000000E+00 -1.258808437291E-01 9.054815639361E-02 0.000000000000E+00 -1.978676265796E-01 -2.578916607647E-02 0.000000000000E+00 -3.115910656651E-02 -1.542470270326E-01 0.000000000000E+00 -4.412435535948E-01 -1.982783883393E-01 0.000000000000E+00 2.207661280093E-01 -4.141852050546E-01 0.000000000000E+00 2.266474830064E-01 3.645365454034E-01 0.000000000000E+00 3.025898181069E-01 3.644984176317E-02 0.000000000000E+00 3.338219232670E-02 -3.750074396738E-02 0.000000000000E+00 3.519201275038E+01 8.894018200151E+00 0.000000000000E+00 2.896328586335E+02 2.859713290280E+03
 0.000000000000E+00 0.000000000000E+00 0.000000000000E+00 0.000000000000E+00 0.000000000000E+00 0.000000000000E+00 0.000000000000E+00 0.000000000000E+00 0.000000000000E+00 0.000000000000E+00 0.000000000000E+00 0.000000000000E+00 0.000000000000E+00 0.000000000000E+00 0.000000000000E+00 0.000000000000E+00 0.000000000000E+00 0.000000000000E+00 0.000000000000E+00 0.000000000000E+00 0.000000000000E+00 0.000000000000E+00 0.000000000000E+00 0.000000000000E+00 0.000000000000E+00 0.000000000000E+00 0.000000000000E+00 0.000000000000E+00 0.000000000000E+00 0.000000000000E+00 0.000000000000E+00 0.000000000000E+00 0.000000000000E+00 0.000000000000E+00 0.000000000000E+00 0.000000000000E+00
 -2.037832687921E+01 -3.398294829293E+01 0.000000000000E+00 3.818750748982E+01 -3.343706097045E-01 0.000000000000E+00 2.943546788538E-02 7.758966038856E-02 0.000000000000E+00 3.651794070832E-02 -1.828272860941E-02 0.000000000000E+00 -1.560176410474E-02 5.613076540825E-02 0.000000000000E+00 -1.249407753836E+03 -4.324695732156E+02 0.000000000000E+00 1.693687238416E-02 -4.895451400747E-02 0.000000000000E+00 -1.657803579938E-02 9.617210362543E-03 0.000000000000E+00 -3.857474455633E-02 -6.144610343052E-02 0.000000000000E+00 -9.379740109573E-03 -9.107832615756E-02 0.000000000000E+00 -1.619690590361E+01 3.605072661182E+01 0.000000000000E+00 7.232494744446E-01 -2.174169986805E-01 0.000000000000E+00 2.776345137988E+03
 3.617326353012E+01 6.046079987074E+01 0.000000000000E+00 -6.819678534788E+01 6.027178213876E-01 0.000000000000E+00 -4.376284960298E-02 -7.696889002986E-02 0.000000000000E+00 -1.014044073653E-01 2.667266549105E-02 0.000000000000E+00 2.840683663858E-02 -8.715970793663E-02 0.000000000000E+00 -4.369433789367E+02 -7.205441121230E+02 0.000000000000E+00 -1.837018042815E-02 4.910819936501E-02 0.000000000000E+00 7.857490136965E-02 4.484706363880E-02 0.000000000000E+00 6.178910336417E-02 6.389331202384E-02 0.000000000000E+00 3.343545510174E-03 1.109962787166E-01 0.000000000000E+00 -3.255260043265E+01 5.556925924185E+01 0.000000000000E+00 2.289624182467E+00 2.301495436613E+00 0.000000000000E+00 1.714028905621E+01 2.806044130049E+03
 0.000000000000E+00 0.000000000000E+00 0.000000000000E+00 0.000000000000E+00 0.000000000000E+00 0.000000000000E+00 0.000000000000E+00 0.000000000000E+00 0.000000000000E+00 0.000000000000E+00 0.000000000000E+00 0.000000000000E+00 0.000000000000E+00 0.000000000000E+00 0.000000000000E+00 0.000000000000E+00 0.000000000000E+00 0.000000000000E+00 0.000000000000E+00 0.000000000000E+00 0.000000000000E+00 0.000000000000E+00 0.000000000000E+00 0.000000000000E+00 0.000000000000E+00 0.000000000000E+00 0.000000000000E+00 0.000000000000E+00 0.000000000000E+00 0.000000000000E+00 0.000000000000E+00 0.000000000000E+00 0.000000000000E+00 0.000000000000E+00 0.000000000000E+00 0.000000000000E+00 0.000000000000E+00 0.000000000000E+00 0.000000000000E+00
 -3.460280366223E-01 1.039713767061E+00 0.000000000000E+00 -1.903922089519E+01 -3.026979816322E+01 0.000000000000E+00 1.946881338307E-01 4.344235689842E-01 0.000000000000E+00 3.178222848765E-01 -5.865856206190E-02 0.000000000000E+00 -1.395328518079E-01 3.357261078852E-01 0.000000000000E+00 -3.096814203836E-01 -1.769197399933E+00 0.000000000000E+00 1.275924639243E-01 -3.575618507973E-01 0.000000000000E+00 -2.184866713915E-01 -3.448450576059E-02 0.000000000000E+00 -2.338425633393E-01 -3.003582395542E-01 0.000000000000E+00 -4.815736553468E-03 -5.563951595961E-01 0.000000000000E+00 5.286300277640E+01 -6.105569447766E+01 0.000000000000E+00 -2.282581516305E+01 3.727352661659E+01 0.000000000000E+00 3.918759402415E+01 6.783148828731E+01 0.000000000000E+00 2.765234813773E+03
 2.475182227652E-01 -6.153811645034E-01 0.000000000000E+00 3.415480809831E+01 5.537925318970E+01 0.000000000000E+00 -4.087168677963E-02 -2.466515755890E-01 0.000000000000E+00 -6.483092968606E-02 1.129756796215E-02 0.000000000000E+00 5.697130737790E-02 -1.087476476192E-01 0.000000000000E+00 2.495094667918E-01 7.729343196026E-01 0.000000000000E+00 -1.290857149263E-01 3.037189803278E-01 0.000000000000E+00 4.176786998050E-02 -1.164495135717E-01 0.000000000000E+00 1.259432288909E-02 1.440831346880E-01 0.000000000000E+00 8.857807681867E-03 2.752182384174E-01 0.000000000000E+00 -1.985822643297E+01 -7.155451495125E+00 0.000000000000E+00 -4.846071002266E+01 7.349928656048E+01 0.000000000000E+00 1.528775450398E-01 -1.760277823241E+00 0.000000000000E+00 -3.323857424448E+01 2.757543065832E+03
 0.000000000000E+00 0.000000000000E+00 0.000000000000E+00 0.000000000000E+00 0.000000000000E+00 0.000000000000E+00 0.000000000000E+00 0.000000000000E+00 0.000000000000E+00 0.000000000000E+00 0.000000000000E+00 0.000000000000E+00 0.000000000000E+00 0.000000000000E+00 0.000000000000E+00 0.000000000000E+00 0.000000000000E+00 0.000000000000E+00 0.000000000000E+00 0.000000000000E+00 0.000000000000E+00 0.000000000000E+00 0.000000000000E+00 0.000000000000E+00 0.000000000000E+00 0.000000000000E+00 0.000000000000E+00 0.000000000000E+00 0.000000000000E+00 0.000000000000E+00 0.000000000000E+00 0.000000000000E+00 0.000000000000E+00 0.000000000000E+00 0.000000000000E+00 0.000000000000E+00 0.000000000000E+00 0.000000000000E+00 0.000000000000E+00 0.000000000000E+00 0.000000000000E+00 0.000000000000E+00
 1.429335943525E+00 -2.280783848444E+00 0.000000000000E+00 -4.251657116234E-01 -8.974880150933E-02 0.000000000000E+00 5.980668906947E-01 -2.015437598681E-01 0.000000000000E+00 5.652614530182E-03 2.313406581670E-01 0.000000000000E+00 2.956285400711E-01 2.296713260386E-01 0.000000000000E+00 1.072015288530E+00 2.956122075180E+00 0.000000000000E+00 -9.091264204328E-01 1.372058255855E+00 0.000000000000E+00 -2.742494148030E-02 -3.513140558799E-01 0.000000000000E+00 -1.281743642227E+00 -9.073525929101E-02 0.000000000000E+00 -1.897732312116E-01 2.938577887479E-01 0.000000000000E+00 -1.314302225137E+03 3.991685591236E+02 0.000000000000E+00 -5.211314609120E+02 6.970057071094E+00 0.000000000000E+00 2.462254285496E+00 -4.661825865794E+00 0.000000000000E+00 1.400891506240E+01 -1.280245644793E+01 0.000000000000E+00 2.677570951793E+03
 1.075469482837E+00 -3.586779138619E+00 0.000000000000E+00 2.063541248418E+00 -3.096079028133E+00 0.000000000000E+00 -1.061734949880E+00 -2.080160470313E+00 0.000000000000E+00 -1.035388060055E+00 7.712108613756E-02 0.000000000000E+00 3.763976067553E-01 -1.481794185390E+00 0.000000000000E+00 1.477002517348E+00 5.647315758726E+00 0.000000000000E+00 -2.201420762540E-01 1.252547949489E+00 0.000000000000E+00 6.686851268334E-01 -2.411167660613E-01 0.000000000000E+00 1.587152554029E+00 1.523250844176E+00 0.000000000000E+00 2.275227169456E-01 2.371038390759E+00 0.000000000000E+00 3.867451892999E+02 -7.670779227418E+02 0.000000000000E+00 -4.846922025393E+01 -1.558448028830E+03 0.000000000000E+00 2.761948017653E+00 -4.977086163031E+00 0.000000000000E+00 2.150265633521E+01 -3.419518021268E+00 0.000000000000E+00 3.199646020712E+01 2.882162306361E+03
 0.000000000000E+00 0.000000000000E+00 0.000000000000E+00 0.000000000000E+00 0.000000000000E+00 0.000000000000E+00 0.000000000000E+00 0.000000000000E+00 0.000000000000E+00 0.000000000000E+00 0.000000000000E+00 0.000000000000E+00 0.000000000000E+00 0.000000000000E+00 0.000000000000E+00 0.000000000000E+00 0.000000000000E+00 0.000000000000E+00 0.000000000000E+00 0.000000000000E+00 0.000000000000E+00 0.000000000000E+00 0.000000000000E+00 0.000000000000E+00 0.000000000000E+00 0.000000000000E+00 0.000000000000E+00 0.000000000000E+00 0.000000000000E+00 0.000000000000E+00 0.000000000000E+00 0.000000000000E+00 0.000000000000E+00 0.000000000000E+00 0.000000000000E+00 0.000000000000E+00 0.000000000000E+00 0.000000000000E+00 0.000000000000E+00 0.000000000000E+00 0.000000000000E+00 0.000000000000E+00 0.000000000000E+00 0.000000000000E+00 0.000000000000E+00
 -1.505595399839E-01 2.872971006340E-01 0.000000000000E+00 -4.637010931396E-01 -2.309830736009E-01 0.000000000000E+00 -4.061909246925E-02 1.275892553645E-01 0.000000000000E+00 -9.763744350101E-02 1.019387695943E-02 0.000000000000E+00 9.859977886435E-03 -4.092631177036E-02 0.000000000000E+00 -1.996558242394E+01 3.487645643627E+01 0.000000000000E+00 9.108883223699E-02 -2.528549001686E-01 0.000000000000E+00 9.732649534261E-02 2.593700897184E-01 0.000000000000E+00 9.859113006172E-02 -4.638313091324E-02 0.000000000000E+00 -2.115982471761E-02 -7.319236038121E-02 0.000000000000E+00 -1.202072025318E+03 -4.172561978090E+02 0.000000000000E+00 1.137958647853E+01 5.566979978366E+00 0.000000000000E+00 -1.169920217685E+03 4.273803637633E+02 0.000000000000E+00 -4.741594985339E+02 -1.532948755675E+01 0.000000000000E+00 -1.163018289512E+01 -4.205910238310E+01 0.000000000000E+00 2.756024896223E+03
 -4.292709605022E-01 1.137715615057E+00 0.000000000000E+00 7.798899989638E-02 9.442151308088E-01 0.000000000000E+00 1.409001759322E-01 4.168615645714E-01 0.000000000000E+00 3.693823517701E-01 -6.507307919662E-02 0.000000000000E+00 -1.517033520158E-01 3.523452384938E-01 0.000000000000E+00 -3.290842460817E+01 5.615140572152E+01 0.000000000000E+00 1.777168124788E-01 -3.931043308259E-01 0.000000000000E+00 -2.980795844328E-01 -1.142355932255E-01 0.000000000000E+00 -1.697074569199E-01 -2.962292189081E-01 0.000000000000E+00 -1.322998925569E-02 -5.729600276934E-01 0.000000000000E+00 -4.136841533153E+02 -6.994396516574E+02 0.000000000000E+00 -2.702279330983E+00 -7.390075065473E+00 0.000000000000E+00 4.259593742010E+02 -7.183077402854E+02 0.000000000000E+00 -1.052906763065E+01 -1.491839762079E+03 0.000000000000E+00 6.133536931557E+01 7.788531040822E+01 0.000000000000E+00 2.987210559767E-01 2.802056830065E+03
 0.000000000000E+00 0.000000000000E+00 0.000000000000E+00 0.000000000000E+00 0.000000000000E+00 0.000000000000E+00 0.000000000000E+00 0.000000000000E+00 0.000000000000E+00 0.000000000000E+00 0.000000000000E+00 0.000000000000E+00 0.000000000000E+00 0.000000000000E+00 0.000000000000E+00 0.000000000000E+00 0.000000000000E+00 0.000000000000E+00 0.000000000000E+00 0.000000000000E+00 0.000000000000E+00 0.000000000000E+00 0.000000000000E+00 0.000000000000E+00 0.000000000000E+00 0.000000000000E+00 0.000000000000E+00 0.000000000000E+00 0.000000000000E+00 0.000000000000E+00 0.000000000000E+00 0.000000000000E+00 0.000000000000E+00 0.000000000000E+00 0.000000000000E+00 0.000000000000E+00 0.000000000000E+00 0.000000000000E+00 0.000000000000E+00 0.000000000000E+00 0.000000000000E+00 0.000000000000E+00 0.000000000000E+00 0.000000000000E+00 0.000000000000E+00 0.000000000000E+00 0.000000000000E+00 0.000000000000E+00
 1.719697916635E-01 -4.625210455799E-01 0.000000000000E+00 5.215648099679E-01 -4.682721223920E-02 0.000000000000E+00 -9.203042986528E-02 -2.979670794631E-01 0.000000000000E+00 -2.574151869130E-02 3.019444284516E-03 0.000000000000E+00 -2.476839391405E-03 -9.586995604937E-02 0.000000000000E+00 4.230490392147E-01 5.026667404865E-01 0.000000000000E+00 -3.466620032688E-02 3.059144553620E-01 0.000000000000E+00 -3.730848677388E-02 -2.649904541499E-01 0.000000000000E+00 1.232470384777E-01 1.808036900872E-01 0.000000000000E+00 5.922169370437E-02 2.322317243990E-01 0.000000000000E+00 -1.879268774945E+01 -5.303599513039E+00 0.000000000000E+00 -1.524984836914E+03 -5.322776974349E+02 0.000000000000E+00 2.090275501393E-01 -1.625631409119E+00 0.000000000000E+00 -1.271224576969E+03 4.390646765657E+02 0.000000000000E+00 5.746854163192E+01 -6.690910081054E+00 0.000000000000E+00 3.445976211401E+01 3.621209216466E+00 0.000000000000E+00 3.081659712176E+03
 -1.346948962074E-01 6.111456488902E-01 0.000000000000E+00 -7.847872997303E-03 6.988933985776E-01 0.000000000000E+00 2.168975525443E-01 3.525426250244E-01 0.000000000000E+00 3.062286671909E-01 -1.554132714170E-02 0.000000000000E+00 -6.272002249180E-02 3.262721932842E-01 0.000000000000E+00 -1.650348189269E-01 -1.129422425241E+00 0.000000000000E+00 -2.202384097157E-02 -1.372760270987E-01 0.000000000000E+00 -2.489785994960E-01 -1.064650861215E-01 0.000000000000E+00 -3.556029518308E-01 -2.903678785220E-01 0.000000000000E+00 -6.054998854363E-02 -4.239156834297E-01 0.000000000000E+00 -2.008465674512E+00 1.487813250832E+00 0.000000000000E+00 -5.365671915011E+02 -8.589192827455E+02 0.000000000000E+00 -6.187781881855E-01 1.057400171224E-01 0.000000000000E+00 4.192994715524E+02 -7.284813225386E+02 0.000000000000E+00 -9.688827488100E+01 2.746505121553E+01 0.000000000000E+00 7.001629435263E+01 -1.754623399943E+00 0.000000000000E+00 9.077414511126E+01 2.532374390019E+03
 0.000000000000E+00 0.000000000000E+00 0.000000000000E+00 0.000000000000E+00 0.000000000000E+00 0.000000000000E+00 0.000000000000E+00 0.000000000000E+00 0.000000000000E+00 0.000000000000E+00 0.000000000000E+00 0.000000000000E+00 0.000000000000E+00 0.000000000000E+00 0.000000000000E+00 0.000000000000E+00 0.000000000000E+00 0.000000000000E+00 0.000000000000E+00 0.000000000000E+00 0.000000000000E+00 0.000000000000E+00 0.000000000000E+00 0.000000000000E+00 0.000000000000E+00 0.000000000000E+00 0.000000000000E+00 0.000000000000E+00 0.000000000000E+00 0.000000000000E+00 0.000000000000E+00 0.000000000000E+00 0.000000000000E+00 0.000000000000E+00 0.000000000000E+00 0.000000000000E+00 0.000000000000E+00 0.000000000000E+00 0.000000000000E+00 0.000000000000E+00 0.000000000000E+00 0.000000000000E+00 0.000000000000E+00 0.000000000000E+00 0.000000000000E+00 0.000000000000E+00 0.000000000000E+00 0.000000000000E+00 0.000000000000E+00 0.000000000000E+00 0.000000000000E+00
 5.020376749680E-02 -2.000318791094E-01 0.000000000000E+00 -1.223109318436E+03 4.480864659186E+02 0.000000000000E+00 -4.909639157862E-02 -1.184554687504E-01 0.000000000000E+00 -2.458744900990E-02 4.025652073490E-03 0.000000000000E+00 1.086397646956E-02 -7.596875916541E-02 0.000000000000E+00 4.074055072024E+01 -2.130697724223E-01 0.000000000000E+00 -2.058710191924E-02 7.833862189675E-02 0.000000000000E+00 -1.997075531556E+01 3.599554686344E+01 0.000000000000E+00 8.157690288074E-02 8.763119829375E-02 0.000000000000E+00 1.755682461943E-02 1.362778599053E-01 0.000000000000E+00 -4.666911783101E+00 -1.675952430014E+00 0.000000000000E+00 -2.486644178442E+00 -1.917044467046E+00 0.000000000000E+00 1.613984999133E-01 -4.068872455633E-01 0.000000000000E+00 -1.140323718653E+03 -3.879529824480E+02 0.000000000000E+00 3.738757222556E+00 -5.253682730970E+00 0.000000000000E+00 3.549180626321E+01 1.045657529925E+00 0.000000000000E+00 -1.744697656118E+01 -3.060307033811E+01 0.000000000000E+00 2.730950357471E+03
 1.343544807168E-01 -4.394100713791E-01 0.000000000000E+00 4.576896107911E+02 -7.465966032450E+02 0.000000000000E+00 -9.367339202668E-02 -1.768831104768E-01 0.000000000000E+00 -1.484211950128E-01 3.981966377006E-02 0.000000000000E+00 6.843001765780E-02 -1.454017512939E-01 0.000000000000E+00 6.703200045109E+01 1.543357215996E-02 0.000000000000E+00 -3.789933657211E-02 1.408569167992E-01 0.000000000000E+00 -3.281362940257E+01 5.936291260976E+01 0.000000000000E+00 1.047400310604E-01 1.219862999924E-01 0.000000000000E+00 -9.232526091061E-03 2.302924888862E-01 0.000000000000E+00 -4.526909411363E+00 -3.469112200760E+00 0.000000000000E+00 7.955181011234E-01 1.738553429601E+00 0.000000000000E+00 4.702035078248E-01 -3.820394543645E-01 0.000000000000E+00 -3.842908440182E+02 -6.670341151884E+02 0.000000000000E+00 -5.225537742044E+00 -9.512216318266E+00 0.000000000000E+00 -6.390468635977E+01 2.648952831724E+00 0.000000000000E+00 3.006573354050E+01 5.873250128207E+01 0.000000000000E+00 -8.652523734461E+00 2.819777906253E+03
 0.000000000000E+00 0.000000000000E+00 0.000000000000E+00 0.000000000000E+00 0.000000000000E+00 0.000000000000E+00 0.000000000000E+00 0.000000000000E+00 0.000000000000E+00 0.000000000000E+00 0.000000000000E+00 0.000000000000E+00 0.000000000000E+00 0.000000000000E+00 0.000000000000E+00 0.000000000000E+00 0.000000000000E+00 0.000000000000E+00 0.000000000000E+00 0.000000000000E+00 0.000000000000E+00 0.000000000000E+00 0.000000000000E+00 0.000000000000E+00 0.000000000000E+00 0.000000000000E+00 0.000000000000E+00 0.000000000000E+00 0.000000000000E+00 0.000000000000E+00 0.000000000000E+00 0.000000000000E+00 0.000000000000E+00 0.000000000000E+00 0.000000000000E+00 0.000000000000E+00 0.000000000000E+00 0.000000000000E+00 0.000000000000E+00 0.000000000000E+00 0.000000000000E+00 0.000000000000E+00 0.000000000000E+00 0.000000000000E+00 0.000000000000E+00 0.000000000000E+00 0.000000000000E+00 0.000000000000E+00 0.000000000000E+00 0.000000000000E+00 0.000000000000E+00 0.000000000000E+00 0.000000000000E+00 0.000000000000E+00