#BIOSYM hessian 1
@Type: Hessian Update
@Units
 distance: 	A
 energy: 	Kcal/Mol
#header
@natom 67

#label
C1      C2      C3      C4      C5      C6      C7      C8      C9      C10     C11     C12     C13     C14     C15     C16     C17     C18     C19     C20     C21     C22     C23     H24     C25     C26     C27     C28     C29     C30     C31     C32     C33     C34     C35     C36     C37     C38     C39     C40     C41     C42     C43     C44     C45     C46     C47     C48     C49     H50     H51     H52     H53     H54     H55     H56     H57     H58     H59     H60     H61     H62     H63     H64     H65     H66     H67

#element
C  C  C  C  C  C  C  C  C  C  C  C  C  C  C  C  C  C  C  C  C  C  C  H  C  C  C  C  C  C  C  C  C  C  C  C  C  C  C  C  C  C  C  C  C  C  C  C  C  H  H  H  H  H  H  H  H  H  H  H  H  H  H  H  H  H  H 

#matrix
201
 2.784576866564E+03
 -2.556343753014E+01 2.818503816498E+03
 1.134011770722E+01 -3.154392805148E+01 1.940579603018E+02
 3.999481382606E+01 6.721779012143E+01 -8.478999706779E-01 2.794047864633E+03
 -6.621023641309E-01 -1.266914066847E+00 1.091179055937E-01 -2.326956674602E+01 2.765211477977E+03
 1.106749123032E-01 4.775698682818E-02 8.410182798000E+00 1.147676505115E+01 -3.451944689774E+01 1.921477508093E+02
 -1.964529381522E+01 3.465754268745E+01 -5.424921562675E-01 -2.754827957501E-02 -3.401179342883E-02 1.059912938236E-01 2.811903332126E+03
 -3.378086007335E+01 5.972896177564E+01 -8.049825019784E-01 7.427244095179E-02 -6.920155943304E-02 6.614367892811E-02 -3.179070971165E+01 2.818774860362E+03
 1.327416532242E-01 -2.885752361275E-01 9.780006509375E+00 -7.033010163608E-02 3.517089961915E-02 -3.324492265090E-01 1.137381350532E+01 -3.470624238254E+01 1.967491711970E+02
 3.885449337741E+01 -6.822419765272E+01 1.079770602746E+00 -1.948866262273E+01 3.525850463184E+01 -4.859337974033E-01 4.223460557157E+01 7.175881863735E+01 -8.593526973487E-01 2.788958893938E+03
 -5.691584478438E-01 -5.100322411321E-01 1.234184541919E-01 -3.278091588140E+01 5.930190252028E+01 -9.466493521711E-01 -5.756039153235E-01 -1.125444723174E+00 2.526777742929E-01 -1.941373345048E+01 2.831329874732E+03
 1.794956369823E-01 -2.717360694659E-01 9.643660985298E+00 3.163991417532E-01 -5.908395522341E-01 9.580612576961E+00 1.782750237483E-01 3.698140643647E-01 9.662775388207E+00 1.092427678828E+01 -3.484369118420E+01 1.960993392554E+02
 -1.615841068585E-01 -8.208870012447E-02 1.136292248353E-02 6.544398161047E-02 -8.197189889452E-02 7.030544818334E-02 4.150247110893E+01 -7.348657061049E+01 1.065479430217E+00 -2.137421348322E+01 3.826467223038E+01 -6.181852091132E-01 2.632007638759E+03
 -5.413173870427E-02 -2.828889658290E-01 3.975421964649E-02 -9.310889163523E-03 -3.470361015506E-02 2.806710949493E-02 3.196938525454E-01 -3.068186121005E-01 4.637833870262E-02 -3.523412166657E+01 6.276270708019E+01 -7.957308866376E-01 -2.230305115027E+02 2.900741257528E+03
 1.675920923627E-02 -1.419207792549E-01 -1.529579230233E-01 1.139065046441E-02 -4.793405661771E-02 2.047388081268E-01 1.074528206892E-01 -1.153476534009E-01 1.014211270354E+01 2.816792937892E-01 -6.179356370936E-01 1.017028241472E+01 1.192980869479E+01 -3.744302150009E+01 1.556875031773E+02
 -1.230957228353E+03 4.464530361271E+02 -9.978553423851E+00 -4.653198532732E+02 -9.214187602910E+00 -1.501806669948E+00 1.481335436315E-02 -3.807288856580E-02 -3.493238586208E-03 -1.203862523906E-01 -2.126450279080E-01 7.356485128349E-02 -1.070069573118E-02 -1.002726659807E-02 1.478185137887E-02 2.823055657402E+03
 4.413130148483E+02 -7.418637186078E+02 9.757491090877E+00 -8.368436275560E+00 -1.432822760200E+03 1.754096700421E+01 -2.579407060219E-02 7.820168917414E-02 1.199529778740E-02 -4.055144039279E-02 4.262607414826E-01 -1.425769634634E-01 2.199852892476E-03 3.034499185307E-02 -4.864041110929E-02 6.412678559364E-01 2.783056416578E+03
 -1.012743208461E+01 9.792441973646E+00 -8.362613875061E+01 -1.624747067854E+00 1.710429886834E+01 -8.120424865260E+01 4.750342253193E-02 7.179840290483E-02 4.785672238356E+00 6.788010627528E-02 -5.775287490197E-02 -9.210055916351E+00 7.543707629934E-02 1.194091451955E-01 2.004822504867E-01 1.092106920916E+01 -3.240126458016E+01 1.934886999958E+02
 -1.196467249288E+03 -4.084949506995E+02 2.798508998647E-02 -1.760975370632E-01 1.798000664972E-01 1.098650536528E-01 -1.258926339431E+03 4.506745124461E+02 -1.058863576404E+01 -4.840792002577E+02 -1.391895627032E+01 -1.589605307133E+00 9.934157101186E-02 1.797489410120E-01 1.387921059578E-01 -1.942074231576E+01 -3.314252298769E+01 2.111378360181E-01 2.819180175031E+03
 -4.084732816917E+02 -7.008531762462E+02 5.771536874067E+00 2.122151529221E-02 4.922465581855E-01 -9.035141134423E-02 4.521553262331E+02 -7.508066742429E+02 1.036937865369E+01 -1.630057273187E+01 -1.512093744745E+03 1.873894147462E+01 3.086574894953E-01 1.086207197998E-02 -1.209864312221E-01 3.460829797664E+01 5.851544051555E+01 -5.805847037833E-01 -3.019949483886E+01 2.846626096815E+03
 2.945053020705E-01 5.822880191317E+00 -8.235477759051E+01 -3.307407322817E-02 -5.349032079883E-02 -9.447243175747E+00 -1.069119383343E+01 1.054564103756E+01 -8.630731913738E+01 -1.538405461075E+00 1.861691269976E+01 -8.602569586593E+01 1.449751444010E-01 1.021391388530E-03 -9.543756012643E+00 -5.501894099817E-01 -7.974654029868E-01 9.179403265462E+00 1.175502867263E+01 -3.419621561185E+01 1.978180901655E+02
 -4.287261560291E-01 -6.186743941874E-01 1.073901463389E-01 -1.222664935680E+03 -4.190877904712E+02 6.599333964025E-01 5.559803696953E-02 -4.884465621842E-02 -7.097725623241E-02 -1.224218889307E+03 4.410662780295E+02 -1.035918356702E+01 -2.206975861169E-02 -3.588234309712E-02 1.036632840709E-01 3.723660142817E+01 -2.897041692221E-01 2.541008028878E-01 4.180618448265E+01 -5.299765708447E-02 3.423695044009E-01 2.807471429866E+03
 3.190381565977E-01 1.179143920767E+00 -1.001503435888E-01 -4.212849853840E+02 -7.033376512168E+02 6.633043481886E+00 2.622000296489E-02 9.079760169061E-02 6.796392878011E-02 4.393945810291E+02 -7.379504333132E+02 1.072215622034E+01 1.179783011798E-01 9.435620723446E-02 6.208278633714E-02 -6.675830807474E+01 2.910397601027E-01 -2.341382179286E-01 6.971426420049E+01 -1.462738014259E+00 2.859692890528E-01 -8.356701101863E-01 2.807306646090E+03
 3.059982365268E-02 -4.276871476756E-02 -9.037056047505E+00 1.102274258322E+00 6.865655906608E+00 -8.296163278522E+01 -1.034807443957E-01 5.033521880553E-02 4.622139665010E+00 -1.060119871183E+01 1.088903814495E+01 -8.440480047959E+01 1.478310158936E-02 1.773364763832E-01 5.190989005276E+00 8.417738647745E-01 4.092893509134E-02 9.055047948639E+00 -7.616726963084E-01 4.646531920113E-02 1.007688276176E+01 1.098309832494E+01 -3.715823365649E+01 1.959344118186E+02
 -1.975807953331E-01 -6.248390981393E-01 -5.296000515439E-02 9.272186679682E-02 -6.259712358059E-02 -3.742432543544E-02 -1.199022029058E+03 -4.056566475798E+02 8.027562224095E-01 -9.501976303462E-02 -1.640209200095E-01 2.066134508036E-01 -5.204378409457E+02 5.002010034946E+00 -2.155255096865E+00 -3.248355719314E-02 2.349890968212E-01 -2.712191773754E-01 -1.952701566546E+01 -3.338751949676E+01 2.411413877149E-02 -3.444274228437E-01 2.857557626841E-01 -1.976870121951E-01 2.769279039029E+03
 4.473960078670E-01 5.269803605538E-01 1.306768881195E-01 -9.260679277641E-02 1.205914480104E-01 7.336351647249E-02 -4.141549805471E+02 -7.007341402922E+02 6.547570033573E+00 -2.674565755950E-02 6.421007495113E-01 -8.761050039029E-02 7.158429449411E+00 -1.635630197399E+03 2.155609076668E+01 1.386416566464E-02 -1.519147481373E-01 1.543126731392E-01 3.436545585888E+01 5.885742585088E+01 -5.204694585900E-01 2.970404031242E-01 -4.671738933595E-01 -3.221662039053E-02 -3.212864825355E+01 2.961790941934E+03
 6.813607756125E-03 1.208699852469E-01 4.275461130367E+00 1.789407192796E-02 3.464679046457E-02 -6.877905261322E-02 6.823042511130E-01 6.496050197006E+00 -8.382080572001E+01 7.873423892648E-02 -1.399147416760E-01 -1.053166698585E+01 -1.881245974426E+00 2.166715782002E+01 -7.808538026093E+01 -5.990081139656E-03 9.106063097438E-02 -3.669771287400E-01 -5.809940829893E-01 -7.087789835723E-01 1.087532409213E+01 -6.585212523195E-02 2.514652867714E-02 2.629759624360E-01 1.230828814425E+01 -3.879325438594E+01 1.836777628520E+02
 3.300901148357E-01 2.032260667079E-01 -4.630459252681E-02 -1.037079360525E-01 8.064425660248E-02 3.425569104392E-02 8.675326798622E-02 -5.666930820706E-02 1.346983324647E-01 -1.198453610933E+03 -4.146812857552E+02 9.942992318007E-01 -1.331197025550E+03 4.972783139940E+02 -1.061740647223E+01 1.314338437531E-02 -2.087466010322E-02 -9.312679494261E-02 3.803294925343E+01 -6.814274914083E-01 -7.135536910849E-02 -1.921266342780E+01 -3.283427116731E+01 1.150263027263E-01 4.992179951447E+01 1.327853302487E-01 5.531419434465E-02 2.880693194038E+03
 -1.068528186555E-01 1.712866741951E-01 4.409718877532E-02 8.253657112407E-03 -8.404420935004E-02 -2.156035769474E-03 -5.785472998932E-02 -3.077885368425E-03 -5.889074042526E-02 -4.064677015156E+02 -7.009304742310E+02 6.306774065336E+00 4.953478491868E+02 -8.255304903787E+02 1.118702137671E+01 4.057450879862E-02 -4.677998215520E-02 -6.978285367289E-02 -6.869090382525E+01 8.303375371866E-01 -1.983303406095E-01 3.445462244915E+01 5.839984816502E+01 -5.781313691844E-01 8.111135052828E+01 3.734686073656E-01 4.036349634937E-01 -9.935609935091E+01 2.846511027181E+03
 9.682623418727E-02 -6.031988360477E-01 4.313788913316E+00 1.274236844765E-01 -1.831002422818E-01 5.781091161089E+00 2.188849995928E-01 -9.199932461999E-02 -1.041711151793E+01 1.037525449798E+00 5.991467656625E+00 -8.270095144624E+01 -1.034511834251E+01 1.147512721311E+01 -7.745463365145E+01 5.451395065838E-02 1.745599005343E-02 6.294771494319E-01 1.077269707484E+00 2.896662920782E-01 1.009399098844E+01 -4.361192313695E-01 -8.581342732451E-01 7.756145574402E+00 -1.386073093174E+00 4.743732851142E-01 1.005213001079E+01 1.120697159144E+01 -3.473073596515E+01 1.864490619625E+02
 -6.105214947993E-03 -9.340731975815E-02 -4.436070716056E-02 -1.017905150452E-02 1.275058608054E-02 3.776212216420E-02 -4.335701792402E-02 2.796240558654E-02 2.040429545813E-02 4.857458450383E-03 -6.468914442977E-02 6.346022743158E-02 -3.597324096881E-02 -3.697511946939E-02 -4.098167504614E-02 2.724618322709E-02 4.623834771026E-02 -1.026773069519E-01 1.246254737596E-01 8.459754601607E-02 -1.073772537680E-01 -4.230487327598E-02 5.587743921227E-02 -1.122854481565E-01 3.434403816944E-02 3.568625538651E-02 -9.174421928780E-04 5.952543883787E-02 -1.433831728123E-02 3.168875701392E-02 2.808507563540E+03
 -1.498276126006E-01 -2.065486686967E-01 5.211806735975E-02 1.838272282738E-02 -1.179055667485E-01 -4.315385510724E-02 -5.387552734205E-02 -8.128312693090E-02 7.522941120205E-02 1.687256672442E-02 -2.414899555263E-01 4.586762375650E-02 -1.231018065747E-01 -1.004605483978E-02 -1.158488392003E-01 -2.991774392224E-02 8.798613424710E-02 5.762429407428E-02 2.097470210108E-01 2.379307654443E-01 -3.744190131390E-02 -1.012811637156E-01 2.080605538712E-01 2.795255005097E-02 -1.007414601372E-01 1.913982373585E-01 4.462403537986E-02 1.677063714351E-01 -1.719998177554E-02 -2.412528698502E-01 1.597946191006E+00 2.800576297711E+03
 -7.079444484914E-02 2.284810139196E-01 -8.411418237716E-02 1.763379333577E-02 9.912267729020E-02 -3.740920310946E-01 -1.425519512894E-01 8.490186045884E-03 9.600194384347E-02 -8.020005686698E-02 1.311278039030E-01 -2.193683966211E-01 -1.139407560062E-01 -3.243824288902E-02 -2.152798827734E-02 -5.452385444866E-02 3.466073695393E-02 4.373337395896E+00 6.520648295588E-02 -1.730805447984E-02 1.460918608779E-01 -6.303342423588E-02 -3.473582248268E-02 2.462117291590E-01 1.370546564146E-01 -1.508611832528E-01 7.028593518116E-02 1.974224430684E-02 1.267073942552E-02 -5.901421696985E-01 8.545637482026E+00 -3.309159716854E+01 1.941801909568E+02
 3.097948348495E-02 -7.245493493443E-02 2.917929902979E-02 5.916189092019E-03 4.681441377421E-02 -7.641172374574E-02 1.069897964427E-02 -3.975122848669E-03 1.589788109668E-01 3.225848225489E-02 1.491907683887E-02 9.588368796639E-02 2.947371344648E-02 -8.885986391139E-02 -9.809520507636E-02 -1.835308073168E-02 5.641685671337E-04 -8.025613837556E-02 -5.374675310704E-02 2.195446319655E-02 -1.462427401264E-01 -4.693642385603E-02 1.565627200377E-02 -6.787948305996E-02 6.493141591573E-02 -2.763091446888E-02 -4.304062825881E-02 -4.884824133665E-02 5.900254821231E-02 -2.124257802823E-01 4.124263939350E+01 7.185005376765E+01 -9.172215101593E-01 2.779566573224E+03
 -2.270723446639E-01 -5.651098674624E-01 9.696333620165E-02 3.213903197500E-02 -1.359646458831E-01 -1.940558822710E-01 -5.593795818348E-02 -8.264586891246E-02 1.007871184427E-01 1.002094399799E-01 -3.703821088015E-01 -5.034039233457E-02 -1.062497882935E-01 -5.627149115014E-02 -9.163691218049E-02 -2.868459509212E-02 5.213712982904E-02 6.525967224393E-02 2.635710561924E-01 3.911094145715E-01 8.720444326713E-02 -1.639923168188E-01 3.219030504299E-01 1.907704343201E-01 -2.328301174284E-01 3.452598869108E-01 2.923693350345E-02 1.488788986968E-01 -8.516369104236E-03 -3.337177903823E-01 -1.011036722619E+00 -1.717099548068E+00 1.086728118636E-01 2.797291284015E+02 2.860199601197E+03
 9.068730684895E-02 -2.213685247086E-01 -1.112585336462E-01 4.665634141521E-02 -8.151620234095E-02 4.302303925260E-01 1.004643779880E-01 4.442047365650E-02 -4.839646638567E-01 5.084542899148E-02 -9.255357083588E-02 -1.792959140340E-01 1.039912088793E-01 1.006410951910E-01 4.131438707151E-01 7.734855811298E-03 -1.462640744127E-02 2.419873098390E-01 -2.337378684414E-02 1.038844630880E-02 2.886155121004E-01 1.042205056713E-01 -3.797134770375E-02 -7.623886564551E-03 -2.513157680194E-01 1.365831279694E-01 -1.520954361481E-02 -6.222147591345E-02 -9.283793506870E-02 1.064871268710E+00 4.308816215254E-02 3.048721048930E-01 1.058790566164E+01 5.842945639734E+00 -3.765767982451E+01 1.501401054109E+02
 -1.986036867947E+01 -3.385960575341E+01 2.200022205214E-01 3.870596832732E+01 -2.568532754680E-01 2.909449207012E-01 1.278730888017E-01 -5.437360433516E-03 -7.296398817431E-03 -2.977435997893E-02 2.787090690563E-01 1.689937901014E-02 1.094483025114E-01 -1.760038294676E-02 5.460166512456E-02 -1.245887919422E+03 -4.344118503950E+02 5.177401693018E-01 -2.454930629175E-01 -3.188177532682E-01 -1.041032116393E-01 8.656361158062E-02 -2.294677422319E-01 -6.250774191382E-02 1.003063602829E-01 -2.130514419499E-01 -3.432315581082E-02 -1.643285793714E-01 3.165748219927E-02 7.092412118195E-02 -1.931039807573E+01 3.437101115081E+01 -4.588742615099E-01 -7.401822209433E-02 1.585288838408E-01 -7.739333211509E-03 2.774540111751E+03
 3.547217421258E+01 5.976307764405E+01 -3.643571116638E-01 -6.786647643498E+01 2.192748173175E-01 -5.450882022540E-01 -2.305643413823E-01 -8.198697350537E-02 2.506616224106E-01 1.129891673408E-01 -7.686536724633E-01 -3.263417982487E-02 -2.948552227860E-01 -1.292821279046E-01 -2.442457626427E-01 -4.390154421952E+02 -7.250578038101E+02 5.847267007637E+00 7.838889084784E-01 8.261657527700E-01 9.840522356326E-02 -3.989189183392E-01 6.947330960892E-01 3.085620446883E-01 -3.516990226250E-01 5.789637031075E-01 7.216706928622E-02 3.830915455278E-01 -6.712753735402E-02 -7.566277066102E-01 -3.280896759014E+01 5.688538752507E+01 -5.739002706243E-01 8.073965867673E-02 -4.399345627483E-01 -2.594526967891E-01 2.052187720848E+01 2.806966295849E+03
 -5.003195702632E-01 -1.009327395817E+00 9.785405348592E+00 1.156026777264E+00 -1.625778211676E-02 9.476784740057E+00 6.566388730032E-02 -1.648640979958E-02 -9.283242593921E-02 4.977112536081E-02 -1.560262717282E-01 1.390990027523E-01 2.851850281683E-03 4.685025798731E-02 1.454388666968E-01 3.322511852721E-01 5.901615131511E+00 -8.306202242226E+01 2.269014854826E-02 1.780160370376E-01 4.470792592405E+00 -5.734068056903E-02 1.104162969447E-01 4.267010493702E+00 -1.456605933076E-01 1.711590014436E-01 -2.083571997011E-01 5.235895638164E-02 -5.520239205740E-02 8.047146466732E-01 3.045875078184E-01 -6.333125636044E-01 8.554740677761E+00 -1.696199456988E-02 -1.411051254483E-01 2.789513478160E-01 9.915886490850E+00 -3.061920525082E+01 1.918933834226E+02
 -1.639310752926E-01 -4.739481186698E-01 1.453793638131E-02 -1.881282878885E+01 -3.162142824881E+01 2.187556476338E-01 -4.165257248685E-02 2.829646222276E-02 -2.473135572889E-02 1.346637854788E-01 -2.611422404003E-01 -5.949892180849E-02 -3.778586678948E-02 -5.469201282532E-02 -2.817898321251E-02 -6.250663664310E-02 -1.888410249477E-01 1.605284394402E-02 1.475353387558E-01 2.596797605622E-01 7.311789353677E-02 -1.241833013188E-01 2.562190512924E-01 4.911732738782E-02 -1.182621129934E-01 2.137421600242E-01 7.019697016546E-02 8.639569929915E-02 6.632103467370E-03 -1.160996860321E-01 3.971652832908E+01 -6.919403212458E+01 1.090121314308E+00 -2.282688948323E+01 4.014911104713E+01 -6.975637082988E-01 3.991555637637E+01 6.670888566450E+01 -8.989270876066E-01 2.771927617192E+03
 -3.192993419794E-01 -8.897043306654E-01 -5.047551773662E-03 3.360021450679E+01 5.567883710185E+01 -5.458537374796E-01 -1.409658542378E-01 -1.694566984668E-02 -3.153142183692E-02 1.093804486883E-01 -4.426373632477E-01 -1.033612960444E-01 -1.506167946789E-01 -8.140552728983E-02 -1.149395123063E-02 -6.105546609179E-02 1.760040155089E-01 -4.385532062459E-02 4.871368802740E-01 5.768605176575E-01 9.873387203342E-02 -2.214899407948E-01 3.693898308202E-01 1.840752122095E-01 -2.547356266388E-01 3.963028933287E-01 6.687972273061E-02 2.082034430298E-01 -8.706774884541E-02 -1.234800212844E-01 -1.451557706303E-01 -1.475366352244E-01 1.802772423537E-01 -4.214886962626E+01 7.366861557131E+01 -1.076751993376E+00 1.943564076577E-01 -8.786763441588E-01 -1.753284708060E-02 -3.680378275340E+01 2.754423492681E+03
 9.448995866584E-03 4.320026416594E-01 -2.795097083439E-01 -4.055697724535E-01 -6.589802229733E-01 7.476349260812E+00 -1.362286392796E-01 -3.458786858898E-03 -3.684459290416E-01 -5.894705888367E-02 1.370578777040E-01 -5.802945245186E-01 -1.463001592890E-01 -1.877980819890E-01 -1.438153147054E-01 -7.137893548825E-02 -1.493350230886E-01 -9.555193122990E+00 8.579669206167E-03 3.576622389729E-02 4.269647177107E-01 -1.907850328608E-01 1.573178142443E-01 4.638929121854E+00 3.371011099245E-01 -2.895338547224E-01 8.934622811126E-01 7.741196753609E-02 1.307169559738E-01 -1.866748971382E+00 1.200418120387E-01 -1.179542993651E-01 1.017658017394E+01 5.780658577815E-01 -7.279546572481E-01 1.196748181214E+01 -1.516380050818E-02 6.589028487125E-01 8.443194119450E+00 1.132971804939E+01 -3.516361405223E+01 1.870144498177E+02
 9.997856716318E-03 1.299195629298E-01 2.620245883935E-02 3.828504003027E-02 -9.537180117847E-02 2.628629946746E-02 9.928473354042E-02 -1.531228850548E-01 -3.905193737499E-02 -2.177751189262E-02 -5.078238486151E-02 -6.264446651349E-02 -3.350662456419E-02 5.897543300941E-02 5.238887477443E-02 9.837745096935E-03 6.703221223428E-02 8.315120347768E-02 -9.666052492360E-02 4.512614183279E-03 9.407462384399E-02 8.901693802610E-03 -1.678907157676E-02 9.087566838435E-02 -6.629800146414E-02 -1.124568688499E-02 2.331978648822E-02 3.078286413241E-02 1.498402858945E-02 3.983164915171E-02 -1.235941922657E+03 4.330699329838E+02 -9.281656402166E+00 -5.057918753604E+02 -1.613500604720E+01 -1.128958481745E+00 -5.005195089114E-02 1.540472975483E-01 -1.180201353537E-01 -1.410850219774E-01 -1.496911121507E-01 -8.721435957626E-02 2.840844911227E+03
 3.246692218256E-01 6.616467753119E-01 -7.814469420140E-02 -4.816914435286E-02 1.877940397686E-01 1.710535379778E-01 1.176835846823E-01 6.727667283758E-02 -9.264999551029E-02 -1.023282399676E-01 4.872606023515E-01 2.609573330030E-02 1.728489379576E-01 6.867990953709E-02 1.386826082193E-01 5.500079947494E-02 -8.767709737481E-02 1.107078612407E-03 -4.279785962795E-01 -5.012423368707E-01 -4.236976876983E-02 2.253211720734E-01 -4.285214833322E-01 -1.422754303866E-01 2.358095215900E-01 -4.081260825291E-01 -8.726955884462E-02 -2.441963464295E-01 3.491382612351E-02 4.053906079848E-01 4.353721910265E+02 -7.290086997986E+02 9.871430448780E+00 -2.605593656223E+01 -1.540975531397E+03 2.098562733771E+01 -3.479482088268E-01 5.489258562323E-01 2.610664515802E-01 3.694264337207E-02 6.562710907266E-01 -1.965613032656E-01 3.008001719274E+01 2.893967573180E+03
 -4.138243448333E-02 3.062386715385E-01 3.926357219789E-02 -1.351257492260E-01 1.451629282757E-01 -7.840568242726E-01 -7.604607002024E-02 -3.952980335060E-02 -1.895518198099E-01 -7.784418750831E-02 2.300710898424E-01 -6.895450741946E-01 -4.086389989094E-02 -3.637913842523E-02 -4.894841420753E-02 -3.053919758970E-02 -4.928735849087E-03 -1.507819158135E-01 -4.720654072895E-02 -1.132193297662E-01 7.459232297416E-01 5.420020616797E-02 -8.352085229170E-02 8.737603087761E-01 6.099062835465E-02 -1.448116547713E-01 6.320361409265E-01 -6.239683576541E-02 5.347669404777E-02 -1.627675913925E+00 -9.517331628962E+00 9.934535487452E+00 -8.478511719929E+01 -1.067862009515E+00 2.106845623170E+01 -7.751184158903E+01 -5.256975952847E-02 4.647676098128E-01 3.986861699948E+00 1.453605002477E-01 7.066768888266E-03 -9.455807093370E+00 7.931239370898E+00 -3.786739867572E+01 1.858960568703E+02
 -8.191133833267E-02 -2.946875963290E-01 5.841768325310E-02 -1.606637440154E-01 -6.073094040609E-02 7.311396918960E-02 -3.294973467074E-03 -2.883257111516E-02 -2.786302075694E-02 -5.944774901604E-03 -1.767422013286E-01 -1.541621424834E-02 -1.726528396333E-02 2.960392688776E-02 6.074419593295E-02 -1.962048552628E+01 3.488984082967E+01 -3.694265751706E-01 1.303434687119E-01 1.390764778626E-01 1.032384553601E-01 2.151586539397E-02 9.719255574358E-02 1.019911523089E-01 -1.805940723215E-01 2.163134106566E-01 -5.206362943944E-02 4.990813129769E-02 -4.000741673414E-02 1.900879230579E-01 -1.219724193899E+03 -4.267943246255E+02 1.336182226668E+00 -9.510881252165E-02 -2.691937387122E-01 1.178179549453E-01 -1.174336766196E+03 4.221082346198E+02 -8.987149574609E+00 -4.696942915943E+02 -8.748311838355E+00 -1.495996769794E+00 -1.947165671716E+01 -3.389822711764E+01 3.100050646841E-01 2.749084480680E+03
 3.641979942507E-01 7.531201800155E-01 -5.967719190561E-02 -5.491638635569E-02 3.048705509763E-01 6.153816201260E-02 2.015641170152E-01 -1.425752805863E-03 -1.076110847219E-01 -1.118918908906E-01 5.097302098730E-01 1.018064902472E-01 1.569180605952E-01 2.971056799040E-02 8.048060604309E-02 -3.287836789804E+01 5.815826660812E+01 -8.915715277503E-01 -5.408497063245E-01 -5.061665236317E-01 -1.689470741365E-01 1.930712272838E-01 -4.835577141040E-01 -3.263977233704E-01 3.786353034293E-01 -5.041143031503E-01 1.932282309563E-03 -2.071361184504E-01 9.448613494224E-02 3.443534357780E-01 -4.295237597794E+02 -7.158547679078E+02 6.603302903764E+00 -3.056589862040E-01 2.061709494963E-01 -1.090093183406E-01 4.233396366640E+02 -7.163492012076E+02 9.500828709673E+00 8.227898470456E-01 -1.496647550888E+03 1.876550701715E+01 3.431638155563E+01 5.903355900595E+01 -7.699826322988E-01 6.099198235581E+00 2.811904933496E+03
 7.153129297055E-02 -9.107070139448E-02 4.507951042675E+00 -3.526359784995E-02 -1.176392343459E-01 -8.810168324575E+00 7.768316779592E-02 1.691734129392E-02 -6.972189837069E-01 -9.927805763813E-03 2.777995174543E-02 -7.717849080207E-01 9.314540190421E-02 1.753064590801E-01 6.513284501407E-01 2.774507252485E-01 -5.004682785021E-01 9.490952995180E+00 -4.751116893478E-02 -7.085059829156E-02 1.015599601172E+00 2.793302180167E-01 -1.439247671830E-01 7.605290634846E-01 -4.087328224925E-01 1.593375310270E-01 1.900689838158E-01 -1.296075372698E-01 -1.308355617377E-01 6.698873505624E-01 1.607522969488E+00 6.623682719491E+00 -8.239650843506E+01 -1.876672414647E-01 -5.420980641327E-02 -9.865272099245E+00 -9.322026197011E+00 9.122315915032E+00 -8.063945972935E+01 -1.435118329677E+00 1.854770688467E+01 -8.257271415196E+01 -4.147279469052E-01 -7.657328769736E-01 1.004142981044E+01 8.908150743177E+00 -3.397467099227E+01 1.921967908626E+02
 8.541806600858E-02 3.108179379720E-01 -4.076485424909E-02 -6.998528667074E-03 1.784359183608E-02 5.549900768828E-02 1.554255599958E-03 2.386956321777E-02 9.569309784873E-04 -5.501803715005E-02 1.382756744719E-01 6.353202004039E-02 1.306091956920E-02 5.441550297339E-02 3.163426819155E-02 3.838264855004E-03 -2.850712393276E-02 7.131766675505E-03 -8.532996392411E-02 -1.640645693924E-01 -7.499702986039E-02 5.907615296627E-02 -1.185296812670E-01 -1.068922943643E-01 6.657441842665E-02 -1.175452110433E-01 -9.184794472937E-02 -3.193337602747E-02 -1.400879527019E-02 2.179706000326E-01 1.190498975198E-02 -6.252663508071E-02 2.678848270595E-02 -1.502741694234E+03 -5.300080422087E+02 2.005853433590E+00 5.852529102210E-03 1.366761901692E-01 8.256508452292E-02 -1.280332375528E+03 4.333555198370E+02 -1.128523109331E+01 4.902116254742E+01 -1.196176001100E+00 -3.203042395708E-02 3.882203521299E+01 -9.449484113565E-02 1.657121315583E-01 3.073484274226E+03
 -2.251261157097E-02 -2.004987620806E-04 1.871249684763E-02 -3.005103256781E-02 -5.571214862651E-02 1.435646964347E-01 -4.791764471254E-03 1.183581799836E-02 -9.705336476257E-02 -1.868151885886E-02 -2.474144707909E-02 -4.723350258717E-02 -9.588870323147E-03 7.284946680786E-02 7.539477337507E-02 3.838167329865E-03 -1.311405989355E-02 1.071646392352E-01 4.318435900784E-02 -2.469858984914E-02 1.016048291659E-01 7.277912785851E-02 -2.266681220667E-03 6.011282820345E-02 -6.661460035197E-02 5.228034580652E-02 3.410637512877E-03 3.358479981393E-02 -4.727820241156E-02 2.245767882384E-01 -7.610781309829E-02 -5.990562775890E-02 -2.012298134732E-01 -5.400835240098E+02 -8.692997325260E+02 9.476183394509E+00 8.765656760466E-02 -4.281785980244E-02 7.542775078934E-02 4.181829952671E+02 -7.223523178315E+02 1.065534558651E+01 -8.552202246828E+01 1.917676773211E+00 -2.489064981263E-01 7.202662109689E+01 -8.016994432150E-03 6.514361102325E-01 9.253515538968E+01 2.538735520848E+03
 9.546033670512E-02 -5.089160025885E-01 2.718502693716E-01 2.242507976738E-02 -1.832434765200E-01 5.628709217353E+00 2.290057029940E-01 -1.593389490988E-03 6.198142570353E-01 1.331372916793E-01 -3.188421668182E-01 1.228828678305E+00 1.540011886168E-01 8.740223390847E-02 -1.081722839595E-01 6.179000231709E-02 -2.904614928690E-02 5.065443898057E-01 -4.104130007905E-02 6.812347689174E-02 -1.188340795022E+00 1.032750866774E-01 7.749531186757E-02 -1.162577643796E+00 -2.050300508983E-01 3.410120802255E-01 -1.150169682799E+00 3.688115361966E-02 -5.820428952724E-02 2.351692061506E+00 1.182825460480E-01 -1.568809950545E-01 -1.116598558105E+01 2.029241839349E+00 9.249083711121E+00 -6.981666110177E+01 2.457339142353E-02 -3.359832200583E-01 5.225983141185E+00 -1.120433771563E+01 1.072354753374E+01 -7.857372686563E+01 1.401985572515E+00 2.484305781279E-01 9.170671033770E+00 -5.900244015277E-01 3.140758854482E-01 9.343423434934E+00 1.062184280087E+01 -3.373261635270E+01 1.543849376956E+02
 4.768300742880E-02 2.454268172405E-02 4.630036913435E-02 -1.226778941502E+03 4.465538138529E+02 -1.055171295562E+01 1.748875101795E-02 -7.659090639870E-02 -1.033988031236E-01 -8.633714014431E-02 -2.915136939619E-03 -2.208737445353E-01 -2.869977176524E-02 1.306335557304E-01 1.843408266621E-01 4.025580195499E+01 -2.882378579282E-01 4.840086549830E-01 5.530517134448E-02 1.577033732659E-02 2.729396547159E-01 -1.970483447416E+01 3.580127774369E+01 -4.177115173846E-01 -1.971851278471E-01 5.214448384436E-02 -4.945006248252E-02 2.159298395443E-02 -1.240929600309E-01 2.860758623228E-01 -3.336925659532E-02 -9.130205930474E-02 -1.258996892690E-01 1.443055173024E-02 -9.348975980279E-03 1.540358941752E-01 5.304327857560E-02 -1.557458339041E-03 -1.413564812080E-03 -1.138416414795E+03 -3.895191314924E+02 3.069103988454E-01 -7.359867954910E-02 6.261122751400E-02 8.475802196045E-02 3.682412726728E+01 -2.664783581232E-01 5.109043452354E-01 -1.772622037126E+01 -3.256720509256E+01 4.570817286855E-01 2.730164913311E+03
 3.268450833837E-01 8.493696801222E-01 1.041282013593E-02 4.557587708912E+02 -7.417172366427E+02 1.134921222899E+01 1.187717095482E-01 2.742215293077E-02 -1.179103385176E-02 -1.605828690284E-01 3.317907043735E-01 2.007545227409E-01 1.000198875513E-01 4.116651338665E-02 1.757924729123E-02 6.707621554519E+01 -7.430361441164E-01 3.605530861664E-01 -3.629123475929E-01 -5.251181800223E-01 -1.396255843617E-01 -3.277675340271E+01 5.918070021804E+01 -1.107438014044E+00 2.905622619450E-01 -3.331556589978E-01 -4.051948899170E-02 -9.694354714310E-02 9.740128140302E-02 2.214023918355E-01 8.841641629792E-02 1.623265069143E-01 -1.429690169953E-03 -1.957744773152E-02 2.934194654657E-01 1.223933939376E-01 -2.716196974930E-01 6.447425672355E-01 7.113306765454E-02 -3.875197927221E+02 -6.697793562385E+02 6.799292772411E+00 -1.352038501717E-02 -4.217303474370E-01 -2.019586955314E-01 -6.493264058105E+01 -2.397253114573E-01 -2.521940654017E-01 3.111733487174E+01 5.770651892387E+01 -2.903342633622E-01 -6.130181045660E+00 2.820289926093E+03
 -3.688832556370E-02 2.981677047705E-01 4.981303701875E+00 -1.158451299003E+01 1.143444356341E+01 -8.298040768587E+01 4.451841604720E-02 -4.756472060299E-02 3.958126050529E-01 -3.722568466946E-03 2.688400682358E-01 4.635517590097E+00 6.022234295655E-02 -1.483710440224E-03 -2.214435426422E-01 -5.340116143591E-01 8.853097594252E-02 9.055711851107E+00 -1.797942968470E-01 -2.538300379608E-01 1.349951948062E-01 4.764171363784E-01 -6.822802139685E-01 1.007548753882E+01 -2.462659433911E-02 -3.403433306175E-03 -6.950988908351E-02 -1.084454643232E-01 8.769238512511E-02 -7.677630088504E-01 -4.460161365459E-02 2.843433067459E-01 4.241385590632E+00 -3.077100676323E-02 4.222781826338E-01 5.133869570117E+00 -7.372814551335E-02 2.055646651721E-01 -9.162338638034E+00 1.274442369604E+00 7.057571742612E+00 -8.103587731957E+01 1.444468765016E-01 -3.710989529429E-01 5.588446427923E-01 9.739625171694E-01 -2.370303991141E-01 8.068236700494E+00 -7.010476882305E-01 -7.328435311206E-01 9.591854569969E+00 1.097751035171E+01 -4.173556571342E+01 1.878097724588E+02