#BIOSYM hessian 1
@Type: Hessian Update
@Units
 distance: 	A
 energy: 	Kcal/Mol
#header
@natom 67

#label
C1      C2      C3      C4      C5      C6      C7      C8      C9      C10     C11     C12     C13     C14     C15     C16     C17     C18     C19     C20     C21     C22     C23     H24     C25     C26     C27     C28     C29     C30     C31     C32     C33     C34     C35     C36     C37     C38     C39     C40     C41     C42     C43     C44     C45     C46     C47     C48     C49     H50     H51     H52     H53     H54     H55     H56     H57     H58     H59     H60     H61     H62     H63     O64     H65     H66     H67

#element
C  C  C  C  C  C  C  C  C  C  C  C  C  C  C  C  C  C  C  C  C  C  C  H  C  C  C  C  C  C  C  C  C  C  C  C  C  C  C  C  C  C  C  C  C  C  C  C  C  H  H  H  H  H  H  H  H  H  H  H  H  H  H  O  H  H  H 

#matrix
201
 2.786464153367E+03
 -2.160970487468E+01 2.818239827811E+03
 0.000000000000E+00 0.000000000000E+00 0.000000000000E+00
 3.939096938470E+01 6.733910122560E+01 0.000000000000E+00 2.790098395947E+03
 -1.450675667891E-01 -2.480586435322E-01 0.000000000000E+00 -2.135507310975E+01 2.766559334439E+03
 0.000000000000E+00 0.000000000000E+00 0.000000000000E+00 0.000000000000E+00 0.000000000000E+00 0.000000000000E+00
 -1.973887821752E+01 3.447925967152E+01 0.000000000000E+00 -2.905025212746E-02 4.322783673994E-02 0.000000000000E+00 2.812403731866E+03
 -3.397671209851E+01 5.953377745812E+01 0.000000000000E+00 1.972239056353E-02 -9.201536723253E-03 0.000000000000E+00 -2.963295844328E+01 2.818342380071E+03
 0.000000000000E+00 0.000000000000E+00 0.000000000000E+00 0.000000000000E+00 0.000000000000E+00 0.000000000000E+00 0.000000000000E+00 0.000000000000E+00 0.000000000000E+00
 3.925480988669E+01 -6.852482850394E+01 0.000000000000E+00 -1.956289730665E+01 3.484210474158E+01 0.000000000000E+00 4.168906712309E+01 7.208121214404E+01 0.000000000000E+00 2.788794099080E+03
 -2.970551883707E-01 4.074094987140E-01 0.000000000000E+00 -3.324511229699E+01 5.918770065802E+01 0.000000000000E+00 -2.796602001707E-01 -4.275467667028E-01 0.000000000000E+00 -1.907725953036E+01 2.833037043824E+03
 0.000000000000E+00 0.000000000000E+00 0.000000000000E+00 0.000000000000E+00 0.000000000000E+00 0.000000000000E+00 0.000000000000E+00 0.000000000000E+00 0.000000000000E+00 0.000000000000E+00 0.000000000000E+00 0.000000000000E+00
 8.219927062059E-03 -1.658253947005E-02 0.000000000000E+00 -7.972843470945E-03 1.817192943538E-02 0.000000000000E+00 4.223229364929E+01 -7.334709998966E+01 0.000000000000E+00 -2.152306586518E+01 3.798516756927E+01 0.000000000000E+00 2.636746361309E+03
 2.491606841079E-02 7.465475324640E-03 0.000000000000E+00 1.886337276046E-02 -1.752346162702E-02 0.000000000000E+00 4.528114706803E-01 -8.013331282270E-01 0.000000000000E+00 -3.568328005568E+01 6.291772713637E+01 0.000000000000E+00 -2.227184485651E+02 2.897291669924E+03
 0.000000000000E+00 0.000000000000E+00 0.000000000000E+00 0.000000000000E+00 0.000000000000E+00 0.000000000000E+00 0.000000000000E+00 0.000000000000E+00 0.000000000000E+00 0.000000000000E+00 0.000000000000E+00 0.000000000000E+00 0.000000000000E+00 0.000000000000E+00 0.000000000000E+00
 -1.232538177216E+03 4.448085049076E+02 0.000000000000E+00 -4.650912909531E+02 -5.440544134103E+00 0.000000000000E+00 5.199429989041E-02 -3.831709008184E-02 0.000000000000E+00 -2.295292511264E-02 -3.410023887677E-03 0.000000000000E+00 3.750744473194E-03 -2.744716665225E-02 0.000000000000E+00 2.824882472077E+03
 4.395446676627E+02 -7.377348584452E+02 0.000000000000E+00 -4.346915255329E+00 -1.434452817144E+03 0.000000000000E+00 -3.593994484202E-03 -7.961931792599E-03 0.000000000000E+00 -3.829172532175E-02 4.371916558877E-02 0.000000000000E+00 -1.805730755204E-03 9.087434962551E-03 0.000000000000E+00 7.640264508266E-01 2.783929265176E+03
 0.000000000000E+00 0.000000000000E+00 0.000000000000E+00 0.000000000000E+00 0.000000000000E+00 0.000000000000E+00 0.000000000000E+00 0.000000000000E+00 0.000000000000E+00 0.000000000000E+00 0.000000000000E+00 0.000000000000E+00 0.000000000000E+00 0.000000000000E+00 0.000000000000E+00 0.000000000000E+00 0.000000000000E+00 0.000000000000E+00
 -1.193674811639E+03 -4.148086183977E+02 0.000000000000E+00 1.178823809568E-01 -1.425819780508E-01 0.000000000000E+00 -1.263292148733E+03 4.455055706647E+02 0.000000000000E+00 -4.856424866023E+02 -8.438385607132E+00 0.000000000000E+00 -1.672382636371E-02 -5.650565469523E-02 0.000000000000E+00 -1.969564654912E+01 -3.331642533919E+01 0.000000000000E+00 2.821991066058E+03
 -4.146055927888E+02 -7.059602079456E+02 0.000000000000E+00 -1.868532801258E-02 -7.479733898497E-02 0.000000000000E+00 4.473334610761E+02 -7.442861055744E+02 0.000000000000E+00 -1.043458750636E+01 -1.513880459195E+03 0.000000000000E+00 -1.129035881774E-02 1.850713220960E-02 0.000000000000E+00 3.420024264261E+01 5.839012239213E+01 0.000000000000E+00 -2.469136601948E+01 2.846045920499E+03
 0.000000000000E+00 0.000000000000E+00 0.000000000000E+00 0.000000000000E+00 0.000000000000E+00 0.000000000000E+00 0.000000000000E+00 0.000000000000E+00 0.000000000000E+00 0.000000000000E+00 0.000000000000E+00 0.000000000000E+00 0.000000000000E+00 0.000000000000E+00 0.000000000000E+00 0.000000000000E+00 0.000000000000E+00 0.000000000000E+00 0.000000000000E+00 0.000000000000E+00 0.000000000000E+00
 6.029633582859E-02 -7.858677586263E-04 0.000000000000E+00 -1.219004073261E+03 -4.214829909414E+02 0.000000000000E+00 5.993662263691E-03 -6.886561821542E-03 0.000000000000E+00 -1.226951926808E+03 4.388166781265E+02 0.000000000000E+00 3.597258569326E-04 -2.460563977719E-03 0.000000000000E+00 3.752682137245E+01 -2.066489628243E-01 0.000000000000E+00 4.119861777296E+01 -2.335094996769E-01 0.000000000000E+00 2.807413500430E+03
 -1.226977104592E-02 -5.535711693797E-02 0.000000000000E+00 -4.238674719592E+02 -7.075634078198E+02 0.000000000000E+00 -3.349749057980E-02 1.076315298514E-02 0.000000000000E+00 4.370692392157E+02 -7.328158698131E+02 0.000000000000E+00 -1.355296916379E-02 9.814952534660E-03 0.000000000000E+00 -6.665704691940E+01 2.920666007324E-01 0.000000000000E+00 7.033180336665E+01 -3.736863061053E-01 0.000000000000E+00 -6.792004041806E-01 2.807944223570E+03
 0.000000000000E+00 0.000000000000E+00 0.000000000000E+00 0.000000000000E+00 0.000000000000E+00 0.000000000000E+00 0.000000000000E+00 0.000000000000E+00 0.000000000000E+00 0.000000000000E+00 0.000000000000E+00 0.000000000000E+00 0.000000000000E+00 0.000000000000E+00 0.000000000000E+00 0.000000000000E+00 0.000000000000E+00 0.000000000000E+00 0.000000000000E+00 0.000000000000E+00 0.000000000000E+00 0.000000000000E+00 0.000000000000E+00 0.000000000000E+00
 1.198637709076E-02 1.333484451973E-02 0.000000000000E+00 1.724545678034E-02 -2.653912594122E-02 0.000000000000E+00 -1.195781090036E+03 -4.099864707493E+02 0.000000000000E+00 1.405365938988E-02 -4.468293817920E-02 0.000000000000E+00 -5.218146476360E+02 1.117400938163E+01 0.000000000000E+00 -1.913228700017E-02 1.884764238892E-03 0.000000000000E+00 -1.984410070039E+01 -3.421934591186E+01 0.000000000000E+00 -2.558723861847E-03 1.963348833576E-02 0.000000000000E+00 2.774527255539E+03
 -3.489006802248E-02 -8.666923772757E-03 0.000000000000E+00 -2.151744255795E-02 1.294858563317E-02 0.000000000000E+00 -4.188187679810E+02 -7.075353492333E+02 0.000000000000E+00 -5.635800380500E-02 -3.568498772868E-02 0.000000000000E+00 1.296478885661E+01 -1.635489925818E+03 0.000000000000E+00 4.356794439437E-02 -5.218302808470E-03 0.000000000000E+00 3.454106426374E+01 5.950740453307E+01 0.000000000000E+00 -4.109236893157E-04 -9.646172267088E-03 0.000000000000E+00 -2.980337740041E+01 2.958928995349E+03
 0.000000000000E+00 0.000000000000E+00 0.000000000000E+00 0.000000000000E+00 0.000000000000E+00 0.000000000000E+00 0.000000000000E+00 0.000000000000E+00 0.000000000000E+00 0.000000000000E+00 0.000000000000E+00 0.000000000000E+00 0.000000000000E+00 0.000000000000E+00 0.000000000000E+00 0.000000000000E+00 0.000000000000E+00 0.000000000000E+00 0.000000000000E+00 0.000000000000E+00 0.000000000000E+00 0.000000000000E+00 0.000000000000E+00 0.000000000000E+00 0.000000000000E+00 0.000000000000E+00 0.000000000000E+00
 -3.602110190216E-02 -3.383209137563E-03 0.000000000000E+00 1.028809069772E-02 1.133331168527E-02 0.000000000000E+00 1.475433001612E-02 3.045551269341E-03 0.000000000000E+00 -1.194091675270E+03 -4.184589471778E+02 0.000000000000E+00 -1.337662799702E+03 4.932091974186E+02 0.000000000000E+00 1.045708613677E-02 8.506297666634E-03 0.000000000000E+00 3.903005931373E+01 -2.663566348986E-01 0.000000000000E+00 -1.938148039813E+01 -3.299767756129E+01 0.000000000000E+00 4.909017559797E+01 5.350910122492E-01 0.000000000000E+00 2.882699333326E+03
 -7.677447244503E-03 -3.099202292979E-02 0.000000000000E+00 -3.005456853789E-02 3.694965522515E-02 0.000000000000E+00 -5.556110114707E-03 -7.091831827092E-03 0.000000000000E+00 -4.100128400139E+02 -7.065199490429E+02 0.000000000000E+00 4.912390345986E+02 -8.185091207126E+02 0.000000000000E+00 2.300240111956E-02 -1.679667817269E-02 0.000000000000E+00 -6.864144644751E+01 4.510408061436E-01 0.000000000000E+00 3.416927895160E+01 5.808356526528E+01 0.000000000000E+00 8.147989961954E+01 8.866237989869E-01 0.000000000000E+00 -9.644459466670E+01 2.845719148252E+03
 0.000000000000E+00 0.000000000000E+00 0.000000000000E+00 0.000000000000E+00 0.000000000000E+00 0.000000000000E+00 0.000000000000E+00 0.000000000000E+00 0.000000000000E+00 0.000000000000E+00 0.000000000000E+00 0.000000000000E+00 0.000000000000E+00 0.000000000000E+00 0.000000000000E+00 0.000000000000E+00 0.000000000000E+00 0.000000000000E+00 0.000000000000E+00 0.000000000000E+00 0.000000000000E+00 0.000000000000E+00 0.000000000000E+00 0.000000000000E+00 0.000000000000E+00 0.000000000000E+00 0.000000000000E+00 0.000000000000E+00 0.000000000000E+00 0.000000000000E+00
 3.925553199243E-02 -5.867151603267E-02 0.000000000000E+00 -3.123092693622E-02 1.694633746078E-01 0.000000000000E+00 -1.026899950888E-02 3.147737316459E-02 0.000000000000E+00 4.856107536244E-02 2.971932409223E-02 0.000000000000E+00 4.108167640760E-02 3.321237924830E-02 0.000000000000E+00 6.410784571649E-02 1.010124358204E-01 0.000000000000E+00 4.586841861544E-02 5.439253493755E-02 0.000000000000E+00 1.744320322482E-02 -1.290946071229E-01 0.000000000000E+00 -2.853437286235E-02 -5.455125592653E-02 0.000000000000E+00 -4.075674807491E-02 -5.350125989763E-02 0.000000000000E+00 2.812563938860E+03
 8.312075671434E-02 -8.240328819888E-02 0.000000000000E+00 -1.163865480648E-01 1.688981790218E-01 0.000000000000E+00 1.234953465747E-02 -2.771998163355E-02 0.000000000000E+00 -8.272757964645E-03 3.436842188524E-02 0.000000000000E+00 1.538780589416E-02 7.370861789344E-03 0.000000000000E+00 1.685834686168E-01 1.484615458017E-01 0.000000000000E+00 3.359508724163E-02 5.156792982404E-02 0.000000000000E+00 1.010720340035E-01 -1.251554626659E-01 0.000000000000E+00 3.605427396443E-03 1.216599618168E-02 0.000000000000E+00 2.335755900895E-02 -2.825619482559E-02 0.000000000000E+00 -3.893450665210E+00 2.797827993797E+03
 0.000000000000E+00 0.000000000000E+00 0.000000000000E+00 0.000000000000E+00 0.000000000000E+00 0.000000000000E+00 0.000000000000E+00 0.000000000000E+00 0.000000000000E+00 0.000000000000E+00 0.000000000000E+00 0.000000000000E+00 0.000000000000E+00 0.000000000000E+00 0.000000000000E+00 0.000000000000E+00 0.000000000000E+00 0.000000000000E+00 0.000000000000E+00 0.000000000000E+00 0.000000000000E+00 0.000000000000E+00 0.000000000000E+00 0.000000000000E+00 0.000000000000E+00 0.000000000000E+00 0.000000000000E+00 0.000000000000E+00 0.000000000000E+00 0.000000000000E+00 0.000000000000E+00 0.000000000000E+00 0.000000000000E+00
 -9.365207024495E-02 -2.114050482257E-01 0.000000000000E+00 -1.656492343272E-01 1.814852966819E-01 0.000000000000E+00 -1.127445045157E-01 6.069717146665E-02 0.000000000000E+00 1.776984347625E-02 -7.349101221472E-02 0.000000000000E+00 -2.426494219113E-02 4.999211230589E-02 0.000000000000E+00 2.678890238989E-01 -6.322453699605E-02 0.000000000000E+00 2.855160201797E-01 1.757757636641E-01 0.000000000000E+00 1.362181096814E-02 -1.381381263131E-01 0.000000000000E+00 2.917828368464E-02 -8.293745915400E-02 0.000000000000E+00 -2.936172222982E-02 -6.374002305080E-02 0.000000000000E+00 4.200178718551E+01 7.274407891513E+01 0.000000000000E+00 2.780084588938E+03
 -6.283788673722E-02 -1.836178228425E-01 0.000000000000E+00 -1.433963272209E-01 1.405797129142E-01 0.000000000000E+00 -8.517896445460E-02 3.649470939696E-02 0.000000000000E+00 7.094797230714E-03 -6.643169062636E-02 0.000000000000E+00 -2.353622002813E-02 3.612073373813E-02 0.000000000000E+00 2.318295969993E-01 -2.649711512607E-02 0.000000000000E+00 2.250796388631E-01 1.487588614969E-01 0.000000000000E+00 2.210361179687E-02 -1.111204044951E-01 0.000000000000E+00 2.703041061210E-02 -5.596552961213E-02 0.000000000000E+00 -1.580233211479E-02 -4.250469789984E-02 0.000000000000E+00 -6.775443611342E-01 -1.225244230202E+00 0.000000000000E+00 2.758799853974E+02 2.856861907804E+03
 0.000000000000E+00 0.000000000000E+00 0.000000000000E+00 0.000000000000E+00 0.000000000000E+00 0.000000000000E+00 0.000000000000E+00 0.000000000000E+00 0.000000000000E+00 0.000000000000E+00 0.000000000000E+00 0.000000000000E+00 0.000000000000E+00 0.000000000000E+00 0.000000000000E+00 0.000000000000E+00 0.000000000000E+00 0.000000000000E+00 0.000000000000E+00 0.000000000000E+00 0.000000000000E+00 0.000000000000E+00 0.000000000000E+00 0.000000000000E+00 0.000000000000E+00 0.000000000000E+00 0.000000000000E+00 0.000000000000E+00 0.000000000000E+00 0.000000000000E+00 0.000000000000E+00 0.000000000000E+00 0.000000000000E+00 0.000000000000E+00 0.000000000000E+00 0.000000000000E+00
 -2.026696861427E+01 -3.456498051725E+01 0.000000000000E+00 3.891953131503E+01 -2.275331725970E-01 0.000000000000E+00 3.987508323196E-02 -1.178176012565E-02 0.000000000000E+00 2.336202586865E-02 3.541661344992E-02 0.000000000000E+00 2.064505927748E-02 -6.231190046864E-03 0.000000000000E+00 -1.246678440875E+03 -4.363747181178E+02 0.000000000000E+00 -8.471843155651E-02 -4.375248415769E-02 0.000000000000E+00 -1.224621391654E-03 3.099785878771E-03 0.000000000000E+00 -1.719866809002E-02 1.518399430866E-02 0.000000000000E+00 3.817969648594E-03 1.284192247674E-02 0.000000000000E+00 -1.919212874920E+01 3.398478128017E+01 0.000000000000E+00 2.303024061086E-01 2.052362051900E-01 0.000000000000E+00 2.784890185772E+03
 3.560654662104E+01 6.063763904725E+01 0.000000000000E+00 -6.813768934431E+01 4.551121415189E-01 0.000000000000E+00 -6.945473489452E-02 4.198737667394E-02 0.000000000000E+00 1.030539700835E-02 -4.445534496156E-02 0.000000000000E+00 -2.093173319699E-02 2.950264808210E-02 0.000000000000E+00 -4.408032008342E+02 -7.286719106480E+02 0.000000000000E+00 1.872708977380E-01 1.277096208165E-01 0.000000000000E+00 9.184735924616E-03 -1.073916998543E-01 0.000000000000E+00 2.846511758058E-02 -4.770182240830E-02 0.000000000000E+00 -1.629146705760E-02 -4.788201354909E-02 0.000000000000E+00 -3.294980238833E+01 5.711859936725E+01 0.000000000000E+00 -4.429855935648E-01 -3.756147443101E-01 0.000000000000E+00 1.958790942363E+01 2.809195708593E+03
 0.000000000000E+00 0.000000000000E+00 0.000000000000E+00 0.000000000000E+00 0.000000000000E+00 0.000000000000E+00 0.000000000000E+00 0.000000000000E+00 0.000000000000E+00 0.000000000000E+00 0.000000000000E+00 0.000000000000E+00 0.000000000000E+00 0.000000000000E+00 0.000000000000E+00 0.000000000000E+00 0.000000000000E+00 0.000000000000E+00 0.000000000000E+00 0.000000000000E+00 0.000000000000E+00 0.000000000000E+00 0.000000000000E+00 0.000000000000E+00 0.000000000000E+00 0.000000000000E+00 0.000000000000E+00 0.000000000000E+00 0.000000000000E+00 0.000000000000E+00 0.000000000000E+00 0.000000000000E+00 0.000000000000E+00 0.000000000000E+00 0.000000000000E+00 0.000000000000E+00 0.000000000000E+00 0.000000000000E+00 0.000000000000E+00
 -1.209796085494E-01 -2.752700689658E-01 0.000000000000E+00 -1.911352429424E+01 -3.132414750003E+01 0.000000000000E+00 -1.356866127440E-01 5.128247053399E-02 0.000000000000E+00 -1.489637315811E-02 -1.125200794033E-01 0.000000000000E+00 -5.268228821630E-02 4.248486351385E-02 0.000000000000E+00 4.359536081261E-01 -1.389454226413E-01 0.000000000000E+00 3.735164412055E-01 2.316820302893E-01 0.000000000000E+00 8.373181157003E-02 -1.482619024688E-01 0.000000000000E+00 5.989934670175E-02 -6.699576635423E-02 0.000000000000E+00 1.060182475961E-02 -6.248843175532E-02 0.000000000000E+00 3.903067268119E+01 -6.957199217127E+01 0.000000000000E+00 -2.363956407162E+01 3.932394384760E+01 0.000000000000E+00 3.986670139813E+01 6.670843658989E+01 0.000000000000E+00 2.762681044871E+03
 1.044408708350E-01 1.163472901012E-01 0.000000000000E+00 3.334878836507E+01 5.532938019495E+01 0.000000000000E+00 6.617048690045E-02 -7.049461768531E-03 0.000000000000E+00 5.477053442534E-02 3.504227148211E-02 0.000000000000E+00 3.655015712302E-02 -1.056153354543E-02 0.000000000000E+00 -2.932553171734E-01 -2.155675724972E-02 0.000000000000E+00 -1.697111834306E-01 -8.570250220398E-02 0.000000000000E+00 -3.049848256230E-02 5.593297371104E-02 0.000000000000E+00 -4.431502424488E-02 9.449817478073E-03 0.000000000000E+00 -1.647789538045E-02 2.614681858422E-02 0.000000000000E+00 2.342801352227E-01 7.645087332458E-01 0.000000000000E+00 -4.217483415524E+01 7.404296616486E+01 0.000000000000E+00 8.614942735164E-02 3.829501526845E-01 0.000000000000E+00 -3.728625243891E+01 2.756498985865E+03
 0.000000000000E+00 0.000000000000E+00 0.000000000000E+00 0.000000000000E+00 0.000000000000E+00 0.000000000000E+00 0.000000000000E+00 0.000000000000E+00 0.000000000000E+00 0.000000000000E+00 0.000000000000E+00 0.000000000000E+00 0.000000000000E+00 0.000000000000E+00 0.000000000000E+00 0.000000000000E+00 0.000000000000E+00 0.000000000000E+00 0.000000000000E+00 0.000000000000E+00 0.000000000000E+00 0.000000000000E+00 0.000000000000E+00 0.000000000000E+00 0.000000000000E+00 0.000000000000E+00 0.000000000000E+00 0.000000000000E+00 0.000000000000E+00 0.000000000000E+00 0.000000000000E+00 0.000000000000E+00 0.000000000000E+00 0.000000000000E+00 0.000000000000E+00 0.000000000000E+00 0.000000000000E+00 0.000000000000E+00 0.000000000000E+00 0.000000000000E+00 0.000000000000E+00 0.000000000000E+00
 1.880414231817E-01 2.469544100271E-01 0.000000000000E+00 1.461569082167E-01 -1.209749448736E-01 0.000000000000E+00 1.484984064603E-01 -6.737788206638E-02 0.000000000000E+00 -2.703462681838E-03 1.317042220750E-01 0.000000000000E+00 6.915542652967E-02 -4.379605324578E-02 0.000000000000E+00 -2.358119590604E-01 1.455339236931E-01 0.000000000000E+00 -3.524020374826E-01 -2.205520153322E-01 0.000000000000E+00 5.655667384016E-02 9.144501571109E-02 0.000000000000E+00 -4.236196673579E-02 8.727334816427E-02 0.000000000000E+00 3.450457006505E-02 4.955208697940E-02 0.000000000000E+00 -1.243733269136E+03 4.394718432179E+02 0.000000000000E+00 -5.061791233082E+02 -1.295646523645E+01 0.000000000000E+00 -1.081902938233E-01 6.201345079519E-01 0.000000000000E+00 1.056043003404E+00 3.516082467871E-01 0.000000000000E+00 2.846194176573E+03
 1.801120819397E-01 4.018664563587E-01 0.000000000000E+00 4.060405526878E-01 -3.136841699981E-01 0.000000000000E+00 2.093512257715E-01 -9.448310125390E-02 0.000000000000E+00 1.267504373119E-02 1.402068580219E-01 0.000000000000E+00 5.491176895032E-02 -8.258302828678E-02 0.000000000000E+00 -6.000230991556E-01 4.743484545056E-02 0.000000000000E+00 -5.357893048139E-01 -3.226933552246E-01 0.000000000000E+00 -6.350543532645E-02 2.381556408346E-01 0.000000000000E+00 -8.101471010350E-02 1.269172503581E-01 0.000000000000E+00 2.907750758171E-02 1.072950669813E-01 0.000000000000E+00 4.427699866453E+02 -7.374692521872E+02 0.000000000000E+00 -2.302227254477E+01 -1.539760864409E+03 0.000000000000E+00 -3.875078882136E-01 8.716226066663E-01 0.000000000000E+00 1.954226772897E+00 -9.715900355006E-01 0.000000000000E+00 1.642790403873E+01 2.895458086610E+03
 0.000000000000E+00 0.000000000000E+00 0.000000000000E+00 0.000000000000E+00 0.000000000000E+00 0.000000000000E+00 0.000000000000E+00 0.000000000000E+00 0.000000000000E+00 0.000000000000E+00 0.000000000000E+00 0.000000000000E+00 0.000000000000E+00 0.000000000000E+00 0.000000000000E+00 0.000000000000E+00 0.000000000000E+00 0.000000000000E+00 0.000000000000E+00 0.000000000000E+00 0.000000000000E+00 0.000000000000E+00 0.000000000000E+00 0.000000000000E+00 0.000000000000E+00 0.000000000000E+00 0.000000000000E+00 0.000000000000E+00 0.000000000000E+00 0.000000000000E+00 0.000000000000E+00 0.000000000000E+00 0.000000000000E+00 0.000000000000E+00 0.000000000000E+00 0.000000000000E+00 0.000000000000E+00 0.000000000000E+00 0.000000000000E+00 0.000000000000E+00 0.000000000000E+00 0.000000000000E+00 0.000000000000E+00 0.000000000000E+00 0.000000000000E+00
 2.612624129639E-02 7.415733410116E-02 0.000000000000E+00 5.519892989752E-02 -1.007937532219E-01 0.000000000000E+00 5.035941932304E-02 -4.944734135033E-02 0.000000000000E+00 -2.310991875624E-02 4.572900660904E-02 0.000000000000E+00 -1.890945109777E-03 -2.839980508019E-02 0.000000000000E+00 -1.985205935011E+01 3.462896629890E+01 0.000000000000E+00 -1.320710175846E-01 -6.711271831021E-02 0.000000000000E+00 -3.231392664296E-02 4.226854529146E-02 0.000000000000E+00 -1.679431929979E-02 4.950005476407E-02 0.000000000000E+00 1.237092679206E-02 2.566673389087E-02 0.000000000000E+00 -1.216528681703E+03 -4.260334138087E+02 0.000000000000E+00 2.658292566026E-01 2.978336881553E-01 0.000000000000E+00 -1.180162478675E+03 4.226904631602E+02 0.000000000000E+00 -4.708347501684E+02 -6.658962967746E+00 0.000000000000E+00 -2.012080184762E+01 -3.518156428738E+01 0.000000000000E+00 2.753217317805E+03
 4.797700949505E-02 -9.130711439369E-02 0.000000000000E+00 -1.326885727058E-01 2.027340932535E-01 0.000000000000E+00 4.796915513398E-03 -1.540193647874E-02 0.000000000000E+00 -1.099541736849E-02 3.287188004367E-02 0.000000000000E+00 7.347009686803E-03 7.588790886738E-03 0.000000000000E+00 -3.318581981541E+01 5.857202306744E+01 0.000000000000E+00 4.395454509462E-02 5.706254018636E-02 0.000000000000E+00 5.100652452158E-02 -1.067061475788E-01 0.000000000000E+00 -6.835988458118E-03 -3.920523828931E-03 0.000000000000E+00 7.601087348111E-03 -3.635594608148E-02 0.000000000000E+00 -4.301355781762E+02 -7.147926228836E+02 0.000000000000E+00 1.276215078369E-01 3.145520532817E-02 0.000000000000E+00 4.241240592288E+02 -7.138465680465E+02 0.000000000000E+00 2.466167005274E+00 -1.498363528540E+03 0.000000000000E+00 3.472174082912E+01 5.974722318345E+01 0.000000000000E+00 3.370176547730E+00 2.809591669320E+03
 0.000000000000E+00 0.000000000000E+00 0.000000000000E+00 0.000000000000E+00 0.000000000000E+00 0.000000000000E+00 0.000000000000E+00 0.000000000000E+00 0.000000000000E+00 0.000000000000E+00 0.000000000000E+00 0.000000000000E+00 0.000000000000E+00 0.000000000000E+00 0.000000000000E+00 0.000000000000E+00 0.000000000000E+00 0.000000000000E+00 0.000000000000E+00 0.000000000000E+00 0.000000000000E+00 0.000000000000E+00 0.000000000000E+00 0.000000000000E+00 0.000000000000E+00 0.000000000000E+00 0.000000000000E+00 0.000000000000E+00 0.000000000000E+00 0.000000000000E+00 0.000000000000E+00 0.000000000000E+00 0.000000000000E+00 0.000000000000E+00 0.000000000000E+00 0.000000000000E+00 0.000000000000E+00 0.000000000000E+00 0.000000000000E+00 0.000000000000E+00 0.000000000000E+00 0.000000000000E+00 0.000000000000E+00 0.000000000000E+00 0.000000000000E+00 0.000000000000E+00 0.000000000000E+00 0.000000000000E+00
 4.382293253018E-02 1.840428712242E-01 0.000000000000E+00 1.602039001957E-01 -1.507097771723E-01 0.000000000000E+00 7.704099428049E-02 -3.204557713033E-02 0.000000000000E+00 -7.582271540084E-03 5.525459196894E-02 0.000000000000E+00 1.613430870777E-02 -3.624092038968E-02 0.000000000000E+00 -2.353090797314E-01 7.531384060923E-03 0.000000000000E+00 -2.154143603463E-01 -1.436825444252E-01 0.000000000000E+00 -4.297255264425E-02 1.220723072078E-01 0.000000000000E+00 -2.397868542751E-02 5.343299049673E-02 0.000000000000E+00 1.130187615268E-02 4.727054543669E-02 0.000000000000E+00 2.226486165408E-01 -2.830349617781E-01 0.000000000000E+00 -1.502391621644E+03 -5.286044110009E+02 0.000000000000E+00 -2.283831538813E-01 3.338201786534E-01 0.000000000000E+00 -1.275628593025E+03 4.329213711978E+02 0.000000000000E+00 4.803440040733E+01 -1.825899223243E+00 0.000000000000E+00 3.883708196166E+01 -3.211688403993E-02 0.000000000000E+00 3.068827778081E+03
 -4.312433853962E-05 7.053680896152E-03 0.000000000000E+00 -6.631481635649E-03 -7.329529656522E-03 0.000000000000E+00 3.353316139346E-04 -8.327991628864E-04 0.000000000000E+00 -4.726080978241E-03 1.720489275177E-03 0.000000000000E+00 1.151244859287E-03 -9.920111934525E-04 0.000000000000E+00 1.287758163884E-02 8.323917286641E-03 0.000000000000E+00 -5.742052578127E-03 -6.649183182880E-03 0.000000000000E+00 5.160213196773E-03 4.385051571541E-03 0.000000000000E+00 3.433194644646E-03 3.356687814167E-03 0.000000000000E+00 2.253951910266E-03 2.578293034266E-03 0.000000000000E+00 -1.250907394975E-01 -5.371080562477E-01 0.000000000000E+00 -5.386526545796E+02 -8.673555367385E+02 0.000000000000E+00 -1.501147197584E-02 6.867754191170E-03 0.000000000000E+00 4.180885440864E+02 -7.225673493938E+02 0.000000000000E+00 -8.583105964232E+01 2.106836287092E+00 0.000000000000E+00 7.202708714986E+01 -1.986389453660E-02 0.000000000000E+00 9.217345111668E+01 2.538385625137E+03
 0.000000000000E+00 0.000000000000E+00 0.000000000000E+00 0.000000000000E+00 0.000000000000E+00 0.000000000000E+00 0.000000000000E+00 0.000000000000E+00 0.000000000000E+00 0.000000000000E+00 0.000000000000E+00 0.000000000000E+00 0.000000000000E+00 0.000000000000E+00 0.000000000000E+00 0.000000000000E+00 0.000000000000E+00 0.000000000000E+00 0.000000000000E+00 0.000000000000E+00 0.000000000000E+00 0.000000000000E+00 0.000000000000E+00 0.000000000000E+00 0.000000000000E+00 0.000000000000E+00 0.000000000000E+00 0.000000000000E+00 0.000000000000E+00 0.000000000000E+00 0.000000000000E+00 0.000000000000E+00 0.000000000000E+00 0.000000000000E+00 0.000000000000E+00 0.000000000000E+00 0.000000000000E+00 0.000000000000E+00 0.000000000000E+00 0.000000000000E+00 0.000000000000E+00 0.000000000000E+00 0.000000000000E+00 0.000000000000E+00 0.000000000000E+00 0.000000000000E+00 0.000000000000E+00 0.000000000000E+00 0.000000000000E+00 0.000000000000E+00 0.000000000000E+00
 7.377878538738E-02 1.268565864278E-01 0.000000000000E+00 -1.226775003729E+03 4.432055919555E+02 0.000000000000E+00 7.606576339723E-02 -3.066768416565E-02 0.000000000000E+00 1.791248095899E-02 4.682298220040E-02 0.000000000000E+00 1.212044207261E-02 -3.448750395036E-02 0.000000000000E+00 3.988781616278E+01 -1.548160329467E-01 0.000000000000E+00 -1.759598143266E-01 -1.066380263399E-01 0.000000000000E+00 -1.992318753547E+01 3.549846936794E+01 0.000000000000E+00 -2.359897860660E-02 5.052950950637E-02 0.000000000000E+00 1.695493555582E-02 4.782838534745E-02 0.000000000000E+00 1.754332424954E-01 7.753550338395E-02 0.000000000000E+00 4.042359817444E-01 3.089389622338E-01 0.000000000000E+00 -8.048840699339E-02 2.689809324723E-01 0.000000000000E+00 -1.132317928995E+03 -3.906099645614E+02 0.000000000000E+00 -4.390322746179E-01 -7.240993590927E-01 0.000000000000E+00 3.673078358159E+01 1.128178916914E-01 0.000000000000E+00 -1.803671305914E+01 -3.261270685946E+01 0.000000000000E+00 2.724108157108E+03
 -2.023361201202E-02 2.512739959768E-02 0.000000000000E+00 4.527836240711E+02 -7.372103472117E+02 0.000000000000E+00 -5.646511612076E-03 1.232876411761E-02 0.000000000000E+00 2.153655605011E-03 5.053549947990E-03 0.000000000000E+00 1.141423141151E-02 3.500275418258E-03 0.000000000000E+00 6.710949550222E+01 -3.214280006222E-01 0.000000000000E+00 -2.288603872081E-03 -1.511633582115E-02 0.000000000000E+00 -3.335208167163E+01 5.926361965792E+01 0.000000000000E+00 -1.879337265667E-03 -7.110624795471E-03 0.000000000000E+00 -1.336091762157E-02 -6.031674238508E-03 0.000000000000E+00 -5.444879249204E-02 -1.954442492856E-01 0.000000000000E+00 2.578542137608E-02 4.593855829114E-03 0.000000000000E+00 -5.003294484603E-03 2.310184963218E-02 0.000000000000E+00 -3.889480824904E+02 -6.692646459316E+02 0.000000000000E+00 -1.674816788012E-01 4.922731015279E-02 0.000000000000E+00 -6.479314545034E+01 -2.052594597798E-01 0.000000000000E+00 3.115667044265E+01 5.724651160059E+01 0.000000000000E+00 -7.515592690604E+00 2.816107596047E+03
 0.000000000000E+00 0.000000000000E+00 0.000000000000E+00 0.000000000000E+00 0.000000000000E+00 0.000000000000E+00 0.000000000000E+00 0.000000000000E+00 0.000000000000E+00 0.000000000000E+00 0.000000000000E+00 0.000000000000E+00 0.000000000000E+00 0.000000000000E+00 0.000000000000E+00 0.000000000000E+00 0.000000000000E+00 0.000000000000E+00 0.000000000000E+00 0.000000000000E+00 0.000000000000E+00 0.000000000000E+00 0.000000000000E+00 0.000000000000E+00 0.000000000000E+00 0.000000000000E+00 0.000000000000E+00 0.000000000000E+00 0.000000000000E+00 0.000000000000E+00 0.000000000000E+00 0.000000000000E+00 0.000000000000E+00 0.000000000000E+00 0.000000000000E+00 0.000000000000E+00 0.000000000000E+00 0.000000000000E+00 0.000000000000E+00 0.000000000000E+00 0.000000000000E+00 0.000000000000E+00 0.000000000000E+00 0.000000000000E+00 0.000000000000E+00 0.000000000000E+00 0.000000000000E+00 0.000000000000E+00 0.000000000000E+00 0.000000000000E+00 0.000000000000E+00 0.000000000000E+00 0.000000000000E+00 0.000000000000E+00