#BIOSYM hessian 1
@Type: Hessian Update
@Units
 distance: 	A
 energy: 	Kcal/Mol
#header
@natom 67

#label
C1      C2      C3      C4      C5      C6      C7      C8      C9      C10     C11     C12     C13     C14     C15     C16     C17     C18     C19     C20     C21     C22     C23     H24     C25     C26     C27     C28     C29     C30     C31     C32     C33     C34     C35     C36     C37     C38     C39     C40     C41     C42     C43     C44     C45     C46     C47     C48     C49     H50     H51     H52     H53     H54     H55     H56     H57     H58     H59     H60     H61     H62     H63     H64     H65     H66     O67

#element
C  C  C  C  C  C  C  C  C  C  C  C  C  C  C  C  C  C  C  C  C  C  C  H  C  C  C  C  C  C  C  C  C  C  C  C  C  C  C  C  C  C  C  C  C  C  C  C  C  H  H  H  H  H  H  H  H  H  H  H  H  H  H  H  H  H  O 

#matrix
201
 2.786641395513E+03
 -2.461573519308E+01 2.816283157568E+03
 -3.433835106507E+01 1.232984049691E+00 1.938251720758E+02
 3.913756278460E+01 6.719613964061E+01 -4.149130121659E-01 2.791616553623E+03
 -3.017924389982E-01 -6.984619675527E-01 -2.816854824685E-01 -2.123254203017E+01 2.768403640125E+03
 -5.453340096704E-01 -1.209708616735E+00 8.603678962776E+00 -1.943715833106E+00 9.852945977069E-01 1.911590097016E+02
 -1.976524484006E+01 3.460484608066E+01 9.047357465355E-01 3.837648303422E-02 3.348191813515E-02 -2.024401117371E-01 2.812107300802E+03
 -3.379268042328E+01 5.944817549322E+01 1.410723628699E+00 2.877400955312E-03 5.677722668238E-02 1.086962616257E-01 -3.128306912588E+01 2.818638631642E+03
 4.166183075730E-01 -3.141769927745E-01 9.388693627361E+00 4.745987375375E-02 -8.201839119424E-03 -2.245150155522E-01 -4.744590895889E+01 2.238469068118E+01 1.965738381558E+02
 3.899505238181E+01 -6.834038031421E+01 -8.766300204109E-01 -1.957653564799E+01 3.514902703827E+01 6.287626695667E-01 4.187079098189E+01 7.204527501818E+01 -6.788256591554E-02 2.788851394872E+03
 -2.411537621637E-01 5.962833572892E-01 6.768192829186E-02 -3.292189913615E+01 5.913766843972E+01 1.107524196778E+00 -3.598957569291E-01 -6.023079513574E-01 -1.946902706517E-01 -1.950774615793E+01 2.832882295194E+03
 -6.388338871961E-01 9.162021500314E-01 9.404747110774E+00 1.788625389221E-01 5.262726162523E-01 9.289307311371E+00 -9.748014097749E-01 -1.545323053243E+00 9.137264974891E+00 -3.113339787731E+01 1.793860409449E+01 1.956273207416E+02
 -3.838507429381E-02 5.618519287961E-02 1.808573293341E-01 -2.925946786659E-02 4.344239137650E-02 1.515614692935E-01 4.210232884852E+01 -7.327394084749E+01 -1.451286763363E+00 -2.155552518513E+01 3.808177322803E+01 8.745833142194E-01 2.636413159980E+03
 5.935886702345E-02 -8.206830210897E-02 -1.073322547595E-01 2.750479991280E-02 -5.111059637291E-02 1.296795920106E-01 3.880515137764E-01 -7.204734230656E-01 1.137887258393E-01 -3.552775797873E+01 6.291350167970E+01 1.446091620398E+00 -2.225773206912E+02 2.898636137319E+03
 1.191823285123E-01 -1.014421148036E-01 2.940063965992E-01 -3.502710331661E-03 9.060878756327E-02 4.813229428826E-01 -5.511508425056E-01 1.296132368741E+00 1.035140891785E+01 4.269878005735E-01 5.420201961673E-02 1.061008272338E+01 -4.200801575568E+01 3.293861045418E+01 1.567008187602E+02
 -1.231983178077E+03 4.465640289809E+02 1.306463726255E+01 -4.651905415221E+02 -9.525616427218E+00 3.607714583624E+00 -1.559706711250E-01 -7.844464917357E-02 6.191683339266E-02 -5.427287339081E-03 -3.978514641082E-01 -3.553687822717E-01 8.062843305425E-02 -8.064341775078E-02 -1.227371300675E-01 2.824094811956E+03
 4.416257226795E+02 -7.363858263425E+02 -4.722805835210E+00 -8.330191677606E+00 -1.433068402238E+03 2.035436276637E+00 -5.232404228744E-03 -1.049176101645E-01 1.845915728909E-03 -3.051176318630E-01 1.329313556468E-01 3.551782300133E-01 -8.661919698713E-02 5.692975812624E-02 4.095231183782E-02 -1.789442069912E-01 2.778543869247E+03
 1.267231312772E+01 -4.902833045589E+00 -8.309684976280E+01 2.156869620377E+00 1.082982599421E+00 -8.078853598519E+01 1.181329880301E-01 -6.280315995874E-02 4.581865874138E+00 9.788622632203E-02 -4.250806900357E-01 -9.131394934088E+00 7.940643854182E-02 -9.190647040251E-02 2.300245069680E-01 -2.738574504908E+01 -5.574121873712E+00 1.925172273270E+02
 -1.191557778243E+03 -4.133221401592E+02 1.572244120226E+01 1.057771831123E-01 -2.158897427296E-01 2.647662434086E-01 -1.263793992904E+03 4.472577725349E+02 2.395116523835E+01 -4.855956339748E+02 -1.048996853093E+01 6.412994747217E+00 -8.723233921078E-03 -6.586384534322E-02 -4.240351926013E-01 -1.959851954002E+01 -3.297069830544E+01 1.143518405707E-01 2.820211274182E+03
 -4.125978339720E+02 -7.038883499654E+02 3.795051575298E+00 -1.834121940108E-01 -1.223637460163E-01 2.175136716178E-02 4.489626986645E+02 -7.462315799057E+02 -1.281074648296E+01 -1.255500247821E+01 -1.513146001322E+03 -9.497788753157E+00 -6.426755241533E-02 2.858091811713E-04 2.871811780535E-01 3.440548139787E+01 5.840544364436E+01 -4.557839747597E-01 -2.614281383326E+01 2.845376162911E+03
 1.602319223850E+01 5.135420978560E+00 -8.198969711406E+01 -3.123626443455E-01 1.033987585831E-01 -8.909516189935E+00 2.390099768535E+01 -1.291874265767E+01 -8.618801844257E+01 5.702127143382E+00 -1.024360649300E+01 -8.551485770732E+01 -6.441201474620E-02 -1.605227616354E-01 -9.816503067761E+00 1.192934394276E-01 -6.613563617367E-03 8.829293156648E+00 -4.501810936317E+01 1.822264001278E+01 1.973649862374E+02
 -5.498775796604E-02 -1.002813604218E-01 -4.494125517997E-01 -1.220114033459E+03 -4.204820244058E+02 2.453328237532E+00 8.858576746350E-03 3.163681177726E-02 9.575201662062E-02 -1.226773994629E+03 4.400825462733E+02 1.449122459200E+01 -1.089054611531E-02 -3.179610504978E-02 -9.563457865113E-02 3.776378656343E+01 -2.034740492176E-01 2.116876507617E-01 4.129594732673E+01 -3.766006414263E-01 -2.533996050789E-01 2.808566696266E+03
 -9.838085585793E-02 9.251431299274E-02 1.112992009127E-01 -4.230811645458E+02 -7.061937340326E+02 -1.156681890103E+00 1.396690290513E-02 7.250306528520E-04 -7.117499154624E-02 4.383173881908E+02 -7.346886768460E+02 -9.961176230988E+00 -5.554184542251E-03 1.177316098487E-02 1.157948598053E-02 -6.655906495728E+01 3.704448386489E-01 2.382014815272E-01 7.024122501470E+01 -5.412709219550E-01 -5.791982878168E-01 -4.101513136872E-01 2.807261810904E+03
 1.708533002109E-01 9.726303410897E-02 -9.176154925394E+00 2.173038324368E+00 -1.327517506210E-01 -8.246299382779E+01 1.356140994320E-01 -2.573641492026E-01 4.931068502699E+00 1.400739213498E+01 -9.355467835618E+00 -8.358853556074E+01 -7.111104693981E-02 -1.374767418630E-01 4.649547355867E+00 1.528446930375E-01 -1.069648743383E-01 8.718434953995E+00 4.213821897991E-02 2.331619697002E-01 9.184726092188E+00 -1.963168218560E+01 2.339478757425E+01 1.949766570785E+02
 1.339569209755E-01 -1.872854194406E-02 -7.728485508286E-02 4.929104991329E-02 -4.913270706893E-02 1.446477856720E-01 -1.194516720612E+03 -4.081938590166E+02 1.663556638357E+01 1.347976850692E-01 1.371137741981E-02 -3.943479635008E-02 -5.222077278877E+02 9.262780240973E+00 8.557450872114E+00 -1.341271111092E-01 8.961651228394E-02 -9.791312300841E-02 -1.991519931636E+01 -3.406501738592E+01 2.432056617160E-01 -6.665521899882E-02 2.829700185353E-02 9.012507385283E-03 2.772429507337E+03
 -2.907208683933E-01 6.141850369704E-02 -3.319970878432E-01 -3.798122611618E-02 -8.341925084012E-03 -4.801543986497E-01 -4.171301284773E+02 -7.050652594221E+02 1.733422585303E+00 -2.292102176670E-01 1.400804241868E-02 -4.492674561973E-02 1.092333451604E+01 -1.635593121169E+03 -1.844063210293E+01 2.559196532647E-01 5.151685068670E-03 -6.739081797370E-02 3.472449360304E+01 5.949720549120E+01 -4.288506363846E-01 1.259644885225E-01 -7.737653515176E-02 3.090044882069E-01 -3.049386384604E+01 2.958031395771E+03
 1.383393696516E-01 -2.798990474450E-02 4.395222261039E+00 3.460499471890E-03 1.468619814700E-02 -1.103355007265E-01 1.687036560703E+01 1.823007076108E+00 -8.343932298353E+01 -3.340285219809E-01 2.001949187855E-01 -1.018501571644E+01 8.036364143914E+00 -1.849589362420E+01 -7.863586395160E+01 -1.685333542469E-02 -4.782455218917E-02 -7.100449547260E-02 7.472617153110E-01 7.609342137422E-01 1.048973591081E+01 1.141019416983E-01 -7.773758443840E-02 1.381872864890E-01 -5.098821850028E+01 3.243266557990E+01 1.837887464091E+02
 8.526118095423E-02 -4.975106653248E-02 5.797559512503E-02 5.174232972099E-02 -2.026607268454E-02 -3.208274081400E-01 -5.929917858779E-02 -2.030054520543E-02 -3.113498350314E-01 -1.194314796698E+03 -4.173157009683E+02 1.142312845442E+01 -1.336381682480E+03 4.944216747576E+02 2.405826861425E+01 -1.696528155409E-01 6.287308152482E-02 7.557740891840E-04 3.890685013213E+01 -3.139865833219E-01 -2.928013679672E-01 -1.942804487866E+01 -3.280990583884E+01 2.058717393043E-01 4.926505073036E+01 5.507835297988E-01 -4.820821176908E-01 2.881754684961E+03
 1.131399437858E-02 5.037639616983E-02 2.136889256153E-01 -6.424084948247E-02 9.740192543262E-02 2.859492188341E-02 -9.626417212539E-03 5.243559793120E-02 -9.112819406700E-03 -4.088700267750E+02 -7.052635825350E+02 4.034662494234E-01 4.925289155240E+02 -8.201826469521E+02 -1.499101556887E+01 6.910167007492E-02 -1.059215008881E-01 2.124949288484E-01 -6.865746955902E+01 5.623254743883E-01 9.453349879089E-01 3.430652967741E+01 5.818548328606E+01 -4.386918449932E-01 8.144247370277E+01 6.252569253861E-01 -1.258780316516E+00 -9.637535729203E+01 2.845620582745E+03
 6.612354773028E-02 -1.098968848232E-01 4.524390261548E+00 1.577604435448E-01 -3.519586312867E-02 4.589994639092E+00 1.001453326489E-01 9.589420654680E-02 -1.018721847600E+01 1.191770286784E+01 1.240124271847E+00 -8.344140146675E+01 2.367446009672E+01 -1.510470414126E+01 -7.826210260377E+01 -1.307917184849E-01 9.673233652629E-02 1.688438625322E-02 -9.317582245351E-01 -2.001281286584E-01 1.066290556283E+01 5.013773217713E-01 4.032052568905E-01 8.435749979546E+00 4.135369335278E-01 -4.146002654883E-02 1.097616071296E+01 -4.063162231245E+01 2.739271816646E+01 1.838757570160E+02
 6.880038269842E-02 2.016162539131E-01 1.397849297672E-01 6.444817003725E-02 1.385339467481E-01 3.038953902172E-01 7.010575116521E-03 1.135491946574E-01 -7.415260500736E-02 1.323216107863E-01 1.482068652171E-02 -1.066799282227E-01 1.839444229749E-02 -6.231825833907E-02 4.596527107045E-02 6.669362031723E-02 -1.969661768169E-01 3.903562797558E-01 -2.357043563630E-02 -2.714916098626E-02 2.157073537827E-01 -7.772240791515E-02 7.591542019579E-03 6.917762965555E-02 -2.838350680385E-02 -1.598891260552E-02 1.140321982540E-01 -2.297555337066E-02 3.892845490935E-02 1.743559221618E-01 2.798374412605E+03
 7.055725313366E-01 -7.406249402993E-01 1.874189914397E-01 -5.591503277336E-02 -4.915002678666E-02 -1.430435451339E-01 -1.249462937413E-01 -1.996616499958E-01 -2.310125007705E-02 1.016060305271E-01 -4.138293616176E-02 2.234700045261E-01 4.299849771150E-02 -3.401341548397E-01 4.262913748542E-01 -7.393088198431E-01 5.685244636051E-01 -1.231305058924E-01 -5.621727413844E-02 1.246684897938E-01 -1.482829554000E-01 -2.753851707771E-02 1.620187118011E-01 -4.211091893062E-01 -3.442550718866E-01 1.051546434290E+00 -2.437015845117E-01 -7.466013559635E-02 4.104786647351E-02 -3.336242857255E-01 9.724342425090E+00 2.795437221173E+03
 -6.353702636078E-01 7.588312457897E-01 -7.600766122407E-01 5.137763440762E-01 -8.424033227949E-01 -1.253038971600E+00 -5.881679846242E-01 -5.504396847131E-02 1.256570093467E+00 -1.217047916715E-01 2.514048972265E-02 9.789966750434E-01 -1.603201805908E-01 5.334215178741E-01 -1.825080063217E+00 -4.063857036564E-01 -1.242820273514E-01 4.062908060392E+00 2.461408459783E-01 -3.764195972524E-01 -1.605813102466E+00 -2.440953669281E-01 1.625174926001E-01 3.046385184038E-01 -7.871727210400E-01 1.381456787406E+00 -1.146398765960E-01 6.855370194434E-03 -5.393460228729E-01 -1.271450687803E+00 1.136839256430E+02 -9.592950452948E+01 2.097860183481E+02
 -1.418439478491E-02 6.759000718536E-01 -1.115636949427E-01 1.645283437970E-01 -7.669290007264E-02 -3.454834654350E-02 -8.256907100463E-02 2.764913130555E-01 1.343183310605E-01 2.218891891567E-01 -4.203091228526E-02 -1.733626953373E-02 1.921660122337E-02 8.827673523146E-02 -3.875524641432E-01 1.222568444140E-01 -2.123134560790E-01 -2.473465604049E-01 -4.626320496673E-02 -1.488606006305E-01 -3.695976981994E-02 -1.978499098465E-01 8.613019374498E-02 2.732650394156E-01 -2.669049736615E-01 1.913143677942E-01 2.115457918387E-01 -5.433359955009E-02 -7.410932847112E-02 4.350412818609E-02 4.071356088025E+01 7.240785973667E+01 9.892046657810E-01 2.775747056995E+03
 -4.042312803190E-01 8.488033257834E-01 1.668163723039E-01 -4.371439248074E-02 1.749518714230E-01 3.548108018939E-01 1.012922885750E-02 2.758499269073E-01 -2.148862136143E-01 9.912482732766E-02 -3.674792121856E-02 -1.416336400989E-01 -1.327641113744E-02 6.663554108951E-02 3.542340162532E-01 7.170187115117E-01 -2.253107030575E-01 1.261900403426E-01 2.471939193487E-03 -5.277571562927E-02 2.754490368056E-01 -1.364195135376E-01 -3.870811657948E-02 -7.216664159072E-02 -8.546438880191E-03 -2.234852989725E-01 2.272679268097E-02 6.322861977364E-02 -2.211071699688E-02 1.892504499137E-01 -1.221972205947E+00 -9.155671547130E-01 -1.395313885575E+00 2.770321588097E+02 2.854543890176E+03
 7.773527540549E-03 -1.369860539948E-02 8.712867747130E-03 -1.061509920730E-01 1.300570808161E-01 1.793810576447E-03 -9.026493483427E-02 -4.501120562926E-03 8.010780407339E-02 5.048090968083E-03 6.290736981142E-03 2.677667433470E-01 -4.014430829314E-02 6.948129632813E-02 1.308854295142E-01 1.586647233867E-01 6.354803092555E-02 2.460721179095E-02 4.099269505900E-02 2.140196153354E-02 -2.594338148946E-01 -4.773470381029E-02 1.948888087796E-02 -1.213968459051E-01 -9.224474280288E-02 1.726236985834E-01 -2.212676953335E-01 3.491704295518E-02 -6.301913812927E-02 -2.751752277844E-01 2.210999987786E+00 4.343192257515E+00 1.183715769611E+01 1.440488411999E+02 -3.259292910930E+01 1.580574241363E+02
 -2.067620155491E+01 -3.413918460803E+01 6.829914091329E-01 3.868513976427E+01 -3.260929541395E-01 -9.395057151012E-01 3.332171233781E-02 -3.723343738456E-02 1.546091669988E-01 -1.949942968104E-01 5.728674206607E-02 8.443721233706E-02 -1.168356917675E-01 1.573815142275E-01 -2.263528913120E-01 -1.246101297557E+03 -4.337459325227E+02 1.243070925240E+01 1.332185291357E-01 3.101559703826E-02 2.059622906751E-01 6.844313865939E-02 -1.465918833616E-01 -5.023455729278E-02 1.421675611802E-01 -2.458505195172E-01 4.198005029369E-02 1.560222968309E-01 -7.017474886415E-02 -6.376045100361E-03 -1.929862281701E+01 3.556223234330E+01 -1.883653039906E-01 3.034548693083E-02 -5.606479872187E-01 -3.641988398183E-02 2.773714539098E+03
 3.562703006672E+01 6.074372787525E+01 -1.318289124191E-01 -6.813695393502E+01 8.773672507957E-01 5.119814424279E-01 7.624896401260E-02 -2.279178160869E-02 -3.453743924613E-01 1.386199246365E-02 -4.803264494805E-02 -2.315577974665E-01 2.561905930010E-02 -2.035208589511E-01 6.622779805234E-01 -4.380985882468E+02 -7.251530844257E+02 1.174248530940E+01 -5.956341222074E-02 1.173295622621E-01 3.457792874379E-01 3.423811829244E-02 -2.400773135625E-02 -4.747421772603E-01 6.311981207208E-02 4.455804293907E-02 -8.931916485740E-02 3.121827897886E-02 1.073393136849E-01 1.183356569915E-01 -3.144561149700E+01 5.552594463176E+01 -9.608569336049E-01 3.039735744051E-01 3.710046941482E-02 -2.709686453131E-01 1.683414701330E+01 2.806046199675E+03
 5.614988955311E-01 1.909619597435E+00 1.016307838323E+01 -2.750951133706E-02 -4.566187081394E-01 9.412064693685E+00 9.804390103341E-02 5.684279307596E-01 -2.743359929745E-01 6.401497999989E-01 -3.612935170579E-01 -1.309351915936E-01 3.411082275892E-01 5.600246011438E-02 5.165927400386E-01 1.070741023247E+01 7.995170204405E+00 -8.324016767614E+01 -6.399467263429E-01 -3.913422667922E-01 4.865461095427E+00 -1.483195884768E-01 6.419692610508E-01 4.403339923857E+00 -7.001022850947E-03 -7.225761804172E-01 -8.045187574276E-02 -3.744539076592E-01 2.481765470451E-01 2.055356302463E-01 7.061111926332E-01 1.953183765687E+00 7.144828270203E+00 -5.557022805753E-01 1.934940611770E-01 -8.612779105499E-02 3.319638162403E+00 -4.083206193819E+01 1.922756957826E+02
 -1.838162462516E-01 5.541636792057E-01 -8.018661084252E-02 -1.902803576818E+01 -3.121283040284E+01 6.277529420120E-03 7.338835539011E-02 8.238789304130E-02 1.272475314558E-02 -2.349458561462E-02 -4.545970807018E-02 -7.956873716471E-02 -1.124922773576E-01 5.528080965074E-02 -1.795313775847E-01 7.057474966799E-01 -3.404377070672E-01 -5.269869266099E-01 3.146821601612E-02 2.902911047748E-02 4.158436322587E-02 7.918286012637E-02 -8.506439253785E-02 2.871696038206E-01 1.719829038316E-02 -6.951627209941E-02 1.505047867918E-01 1.864908780938E-01 -1.536434105672E-02 1.520368044211E-01 3.896388067001E+01 -6.861650542560E+01 8.119443834498E-01 -2.383301781059E+01 3.911285950143E+01 -3.048558708751E+00 3.934583145967E+01 6.721742361240E+01 -7.704036234932E-01 2.762722816440E+03
 5.554705596679E-01 -1.685059261023E-01 1.699720824513E-02 3.404538718426E+01 5.536587136716E+01 1.313037336293E+00 -7.031988431049E-02 1.077052885672E-01 5.443553625847E-02 3.024856676231E-01 -5.317268854562E-03 1.312703463428E-01 1.681286458295E-01 -9.802628734289E-02 -3.496170126738E-02 -1.217593335914E+00 -1.331816496106E-01 -2.124826259893E-01 -1.871694732358E-01 -1.708173965614E-01 1.419055887106E-02 -2.210249341902E-01 2.455986978942E-01 -4.081979491529E-02 -2.219085225503E-01 2.649116668958E-01 2.099659523341E-02 -2.661404975640E-01 4.826836478481E-02 -5.054965360145E-02 -5.153904565244E-01 3.034512771727E-01 3.685320931511E-01 -4.222026632262E+01 7.470572061122E+01 -2.238862237824E+00 5.716013792928E-01 1.956095998603E-03 -6.112613931202E-01 -3.848949670955E+01 2.760064557338E+03
 -7.637358093273E-01 3.308271213107E-02 3.281161065667E-02 -5.351826965607E-01 2.266295649415E+00 8.271641126992E+00 -3.175120348023E-01 3.483151279085E-01 -3.140031135300E-02 9.340820402286E-03 7.213950446516E-01 -4.068332719249E-02 2.598875338035E-01 3.108091338651E-01 4.060604380539E-02 1.764904717040E+00 3.697050693248E-01 -8.915669494438E+00 3.827468505846E-01 -4.654613873592E-01 5.264934540537E-02 -9.718229628980E-01 -6.407225589458E-01 4.271495664987E+00 1.586973117001E-02 -4.743800775411E-01 2.246878735062E-02 -5.476705379555E-01 -3.934193107544E-01 6.241132992144E-02 1.217050090493E+00 -2.238564924829E+00 9.202711494870E+00 -6.203807486638E-01 2.707935433988E+00 1.230759395314E+01 -9.061463229842E-02 -6.046230731924E-01 8.911602909630E+00 8.745798477256E+01 -4.150116609758E+01 1.883027848824E+02
 6.071871350239E-01 -1.071459847663E+00 8.062558547350E-03 -3.377578817984E-02 -1.219988878107E-01 -1.752102290917E-01 5.710447098558E-02 -2.548990154341E-01 -2.388424667493E-02 -1.803269348315E-02 3.779122721323E-02 -3.736260020850E-02 8.450708593750E-02 -2.142944878892E-01 3.183234438851E-02 -8.473740845046E-01 3.486113244615E-01 -5.552540049308E-03 -7.030235908316E-02 9.397024636518E-02 2.691670462511E-02 1.235721656552E-01 5.723421989315E-02 -8.232073989976E-02 9.114526881769E-02 8.881518245926E-02 -1.789780087301E-02 -1.341584712520E-01 1.292991826272E-01 1.577145530044E-02 -1.220161019851E+03 4.364095360627E+02 -7.525914034263E+01 -4.993383210163E+02 -2.107701433974E+01 -2.644855367988E+01 6.269783237000E-01 1.401139184861E-01 2.238340894738E-01 1.746842809534E+00 -3.178677593912E-01 -6.136548838060E-01 2.828150593072E+03
 4.960829287975E-01 -7.903088068050E-01 -2.482992103804E-01 2.205764860344E-02 -1.809574647709E-01 -2.115851861857E-01 6.390761330944E-02 -1.532764605126E-01 2.292586933185E-01 -2.573264706655E-02 5.356522218167E-02 3.584892756870E-02 5.128753950311E-02 2.708204226196E-02 -5.974758807486E-01 -7.272685861742E-01 1.064271971258E-01 -2.617892710854E-01 -5.091495936333E-02 -4.577506500119E-03 -1.811050959514E-01 1.113678777340E-01 3.566701975204E-02 3.200744454729E-01 1.215593371041E-01 -2.381237472150E-01 1.321300015896E-01 -1.290845391086E-01 5.286087748363E-02 3.836418955479E-03 4.402369189583E+02 -7.357442163176E+02 4.274600031598E+01 -3.156521696403E+01 -1.538923645253E+03 2.586844213202E+01 2.619900921159E-01 7.721108326284E-01 -6.034607644156E-01 1.135453010368E+00 -1.516523064775E+00 -1.353445490021E-01 2.024562649348E+01 2.890294482432E+03
 -1.846253652761E-01 -3.238563228523E-02 -2.321879614319E-01 2.574631442742E-01 -1.084623454614E-01 -3.211916606134E-01 1.118605981193E-01 -3.667928345905E-02 8.300332890271E-02 -7.565144445450E-02 2.082172051916E-02 -5.703614054094E-01 5.763289378018E-02 -7.823509582007E-02 -9.093664124470E-01 -6.961484395446E-02 -2.472213744602E-01 -2.206516311775E-01 4.910397046041E-03 -8.543985919930E-02 3.900370101285E-01 1.028300972355E-01 -1.160780041128E-01 4.814775139807E-01 7.644667417108E-02 -1.384553536820E-01 6.725740643910E-01 -8.433428902149E-02 4.928190934712E-02 5.302591434681E-01 -7.568076251915E+01 4.450128786279E+01 -9.075676785018E+01 -2.544762214145E+01 2.512356308150E+01 -7.914839186008E+01 -5.757774154136E-01 -1.737010967916E-01 4.223328680524E+00 2.027537777563E+00 -5.684094889559E-01 -1.032193244744E+01 1.704296135223E+02 -4.906931216969E+01 1.981149928153E+02
 -2.034888897395E-01 -2.507067877393E-02 7.115231175467E-02 -7.816340915543E-02 -1.218749528481E-01 -5.699607810956E-01 -7.500386751809E-03 -2.202618750813E-02 -1.851713649548E-01 -4.170383121794E-02 -1.298915390451E-02 -9.750693319213E-02 1.308320296220E-02 -3.087143755664E-02 4.171822610244E-01 -1.959852570321E+01 3.489433676325E+01 -9.562793470971E-01 1.664517267923E-02 4.395325840600E-02 5.798105502869E-02 7.423229840703E-03 -2.763239054125E-03 -3.427800799784E-01 7.487190957291E-02 -8.440219627706E-02 -1.433814405908E-01 1.138740028126E-02 1.882550178529E-02 -1.222768870799E-02 -1.222435596023E+03 -4.257033057452E+02 -2.855853298179E+01 1.284523336804E-01 2.684973136000E-01 1.270768691512E+00 -1.171858613455E+03 4.244336588658E+02 -1.603343787337E+01 -4.742708036256E+02 -1.202524210431E+01 -1.008058126000E+01 -1.952538646186E+01 -3.287022336318E+01 -4.172881030735E-01 2.752489490239E+03
 -4.695484223064E-01 4.242143796236E-01 -1.631751348344E-01 -2.864130375126E-01 9.964176795889E-02 5.445235917434E-01 -2.959418624706E-02 6.327635285421E-02 1.609649419481E-01 -1.305446069872E-01 1.368788445933E-02 1.288644368796E-02 -9.216415328686E-02 2.334780666456E-01 -4.262193732899E-01 -3.204807321131E+01 5.801066325059E+01 -2.049051200241E+00 1.226600597980E-01 -1.500200803488E-02 -2.376165077497E-01 3.480989585792E-02 -1.207455604578E-01 4.230553306303E-01 2.108025531220E-02 -1.875768062703E-01 1.102938772907E-01 1.106643621023E-01 -1.277613823555E-01 -1.924579400899E-03 -4.293498352989E+02 -7.076186117429E+02 -9.951173991878E-02 -9.515571297635E-01 -1.098655744865E+00 4.205223202575E-01 4.259414599841E+02 -7.156445731569E+02 1.077590091177E+01 -4.293971496101E+00 -1.496380977917E+03 2.375650983390E+01 3.641045093256E+01 5.960896621837E+01 -1.178087112144E+00 6.577651933661E+00 2.804084643877E+03
 -5.090843778953E-02 1.210202719846E-01 4.840483114866E+00 1.181205309052E+00 -8.659444431864E-01 -8.320792978717E+00 1.630060981875E-01 3.763528782251E-01 -5.040801431148E-01 4.767888595392E-01 -1.645506141290E-01 -4.248707426570E-01 3.265357750720E-01 -9.090453311917E-02 7.089547850598E-01 -1.523733727437E-01 -2.418222188569E+00 9.105531898130E+00 -4.034913602151E-01 -2.815924838810E-01 6.720723522835E-01 -1.948284082906E-01 3.878213710734E-01 -9.800092890889E-02 1.735909636130E-01 -9.219914672660E-01 6.903391110813E-02 -3.406063776208E-01 2.893444970055E-01 5.488566551932E-01 -2.488918471243E+01 5.157434607375E+00 -8.637458882049E+01 -2.174896697349E+00 4.754102855988E-01 -1.098905086239E+01 -1.943755303717E+01 1.582336159595E+01 -7.995048120301E+01 -1.059342749729E+01 1.725575505971E+01 -8.325638935092E+01 -2.390703927378E+00 -6.743524007317E+00 9.888635476377E+00 5.246210610252E+01 -3.368107805432E+01 1.934176224292E+02
 5.568661118969E-01 -9.145001736425E-01 8.608652864757E-04 7.829849064404E-02 -1.549005909531E-01 -1.983314779562E-01 -2.905333304259E-02 -2.388075776433E-01 7.871095469438E-02 1.201296818516E-02 2.874188760842E-02 5.685233723961E-02 7.994580435563E-02 -2.241048734893E-01 -8.378176116051E-02 -8.727802378063E-01 2.598610199062E-01 1.046199321496E-01 -5.163282187124E-02 3.410576223402E-02 -9.016982844459E-02 5.029948748426E-02 8.850740008362E-02 -8.362800511285E-02 -8.395188959462E-02 4.453925740598E-01 -1.911415143612E-02 -1.450134349161E-01 7.080706769488E-02 -1.174154641164E-01 7.849898671578E-01 -2.440822552982E+00 1.172226885686E+00 -1.508435972645E+03 -5.197342410168E+02 -7.136529906778E+01 7.658677202393E-01 -3.079801182083E-01 -9.505714465534E-02 -1.266956905466E+03 4.390742462592E+02 -5.290380836350E+01 4.521034512891E+01 -2.759190320488E+00 2.051888887932E+00 3.954273576716E+01 1.323248463320E+00 2.692629445043E+00 3.065826351920E+03
 -4.851794482771E-02 -1.636487736984E-01 1.097755799843E-01 -1.304677786927E-01 4.012469671896E-02 1.397688671293E-01 6.672477993248E-02 -7.986836235275E-02 -1.492599598339E-01 -8.941416012841E-02 -8.231638621591E-03 -9.379953974294E-02 -1.808673446215E-02 -6.508288577626E-02 2.747663223829E-01 9.968523888139E-02 1.202561842757E-01 1.554079294930E-01 2.000831455617E-02 9.220964559746E-02 1.581751844656E-01 1.053555508552E-01 -4.894064923995E-02 -1.560000163993E-01 1.434858011064E-01 -1.476610709209E-01 -5.191731164534E-02 5.670779637117E-02 5.646749404400E-02 8.778121856028E-02 -1.829206878870E-02 -9.759467773294E-01 -1.089592097327E+00 -5.310261929531E+02 -8.631111051928E+02 -1.841088731462E+01 -5.459242057969E-02 -6.213265223560E-02 6.006889572369E-01 4.253819679763E+02 -7.275920363991E+02 2.534647548518E+01 -8.643220659275E+01 3.022976468924E+00 -3.881410266822E+00 7.134830755373E+01 -5.316426518773E-01 5.219764204963E+00 8.554920665336E+01 2.538376449642E+03
 9.448558337948E-02 -2.690891048065E-01 1.177736893416E-01 -3.924630407989E-01 -1.900397419806E-01 4.696828061646E+00 1.916020438275E-02 -8.498162440628E-02 -1.262655018199E-01 -6.712134569858E-02 -5.492817062960E-02 5.470635127796E-02 -3.442742191408E-02 -5.751572802698E-02 3.779209953224E-01 2.966735029181E-02 3.919979129300E-01 9.771480034817E-02 2.102424868318E-02 1.589493071152E-01 3.643697658681E-02 1.302279350855E-01 2.390878642509E-02 -1.577276993231E-01 6.314878276591E-02 -4.105631434326E-03 -1.582994349299E-01 7.233363757495E-02 4.497297131574E-02 -3.312484765639E-02 3.490161903740E-01 -5.088916903180E-01 -1.086616196305E+01 -6.953514994162E+01 -1.579711078721E+01 -7.410935186802E+01 2.819782069514E-01 -6.283332859812E-02 4.761066815509E+00 -5.505503593281E+01 2.916343924130E+01 -7.799876214538E+01 2.964460507995E+00 5.404564914554E-01 1.049410550719E+01 3.721073751950E-01 1.611437378818E-01 1.022724111308E+01 1.377049249597E+02 -3.067506586913E+01 1.578492490489E+02
 1.516101210235E-01 -1.008641590903E-01 4.832700380876E-02 -1.226867717249E+03 4.464064443068E+02 -3.344687451233E+00 -3.700400810580E-02 -3.746108635998E-02 1.057430955157E-01 1.978780732403E-02 1.699940070303E-02 1.694907731153E-01 3.039689432792E-03 -3.244079382782E-02 -1.487032225800E-01 3.990163320593E+01 -3.430720632890E-01 1.824527724393E-01 -6.819831671269E-04 -2.504910135647E-02 3.148438244864E-02 -1.998797924860E+01 3.576176114063E+01 3.153066485721E-01 -7.326835137753E-02 1.769824955498E-01 7.682114812149E-03 -2.730049343415E-02 9.350298574656E-03 -9.938267228526E-02 -1.472439759750E-01 -3.488331083545E-01 7.814788039539E-01 2.562154025495E-01 3.539824978600E-01 -1.182840679221E-01 3.345365082964E-01 -2.445974008287E-01 -3.035854825798E-01 -1.137664807659E+03 -3.900197671966E+02 -2.222164274043E+01 -5.274046388887E-01 -3.209980913571E-01 -1.847557736563E-01 3.701243805467E+01 2.641669310182E-01 3.974826014991E-01 -1.838059581940E+01 -3.232838371433E+01 -6.053020201982E-03 2.729442512805E+03
 -1.012844646055E-01 -2.226743568358E-01 2.088068692832E-03 4.556314088381E+02 -7.419586431131E+02 -3.719611876694E+00 3.277585886940E-02 -1.269763340032E-01 4.847324878648E-03 -1.302592057145E-01 -1.262295620978E-02 -5.341933529820E-02 -3.190659273567E-02 2.895100482300E-02 -3.713893732923E-02 6.721017000532E+01 -6.160588521498E-01 7.094852861864E-01 3.992741531518E-02 7.281051784850E-02 -1.507506066332E-01 -3.311573076538E+01 5.928511428823E+01 -5.401807582022E-01 1.116751726477E-01 -1.065586040515E-01 -7.155241425192E-02 5.072438964548E-02 3.127509614788E-03 -1.006741122117E-01 2.601977474731E-01 -6.348520584832E-02 8.929956403000E-01 6.926199297348E-01 4.980305324117E-01 1.536959742815E-01 -2.168817221992E-01 -8.682040151050E-02 4.065420770773E-01 -3.877245611904E+02 -6.698362222815E+02 -9.743360596817E+00 -6.438479384690E-01 -5.546507033860E-01 -1.230323554080E-01 -6.529133906555E+01 4.759588615140E-01 -5.986790091777E-01 3.128431833953E+01 5.688928479045E+01 -2.193613699921E-01 -9.352666689699E+00 2.821530919879E+03
 2.694042584908E-01 -8.684517226246E-01 4.349766335755E+00 -3.078925910504E+00 -2.989236116673E+00 -8.284323213511E+01 -1.237253082773E-01 -5.263427009712E-01 3.385486480665E-01 -7.901075175522E-01 -1.951700561568E-01 4.660755560627E+00 -2.642860536592E-01 -3.543453622747E-02 -8.163108194200E-01 -8.791343579409E-01 9.917106895382E-01 8.692186798238E+00 4.140083134229E-01 7.071114303549E-01 -2.330744916057E-01 8.009977079391E-01 -7.963871809060E-01 9.799457159013E+00 -4.626641340450E-02 6.884599618894E-01 2.568080922160E-01 2.881468048035E-01 -2.450660387218E-01 -1.105005763568E-01 -1.264451098590E+00 -1.101933408016E+00 5.952211182191E+00 1.545363972891E+00 -9.119062963370E-01 5.416647894805E+00 1.416337631085E+00 -3.600566884450E-01 -9.378869123913E+00 -2.251649332904E+01 -5.075229652259E+00 -8.095440006615E+01 -4.626184818651E-01 2.104670517794E+00 8.302138849184E-01 1.826494728698E+00 -6.023343907596E-01 7.586874577891E+00 -3.163308818275E+00 -3.274063646593E+00 8.894503226988E+00 2.854409572500E+01 3.557651855469E+01 1.878566719115E+02