#BIOSYM hessian 1
@Type: Hessian Update
@Units
 distance: 	A
 energy: 	Kcal/Mol
#header
@natom 73

#label
C1      C2      C3      C4      C5      C6      C7      C8      C9      C10     C11     C12     C13     C14     C15     C16     C17     C18     C19     C20     C21     C22     C23     C24     C25     C26     C27     C28     C29     C30     C31     C32     C33     C34     C35     C36     C37     C38     C39     C40     C41     C42     C43     C44     C45     C46     C47     C48     H49     H50     H51     H52     H53     H54     H55     H56     H57     H58     H59     H60     H61     H62     H63     O64     H65     C66     O67     O68     H69     O70     H71     O72     H73

#element
C  C  C  C  C  C  C  C  C  C  C  C  C  C  C  C  C  C  C  C  C  C  C  C  C  C  C  C  C  C  C  C  C  C  C  C  C  C  C  C  C  C  C  C  C  C  C  C  H  H  H  H  H  H  H  H  H  H  H  H  H  H  H  O  H  C  O  O  H  O  H  O  H 

#matrix
219
 2.808284941001E+03
 -1.136926127485E+01 2.830505857483E+03
 -2.073972924178E+01 -1.465620977189E+01 1.955015540724E+02
 3.924370632269E+01 6.864618589260E+01 -1.807005464375E+00 2.773201204524E+03
 -4.639253143082E-01 -1.725082285226E+00 4.996232267556E-01 -3.945510240694E+00 2.748526387519E+03
 -2.333663717764E-01 2.711348479337E-01 9.087023632871E+00 -1.039969270662E+01 -1.930979050365E+01 1.892825305861E+02
 -1.962937584413E+01 3.641686196100E+01 1.662451833116E-01 -2.342306487557E+00 5.516426730742E-01 4.368437783227E-01 2.832996208221E+03
 -3.324077187376E+01 6.000849479298E+01 -2.406017969604E-01 -1.106734104693E-01 -9.721244861605E-02 -1.342040068597E-01 3.640039362519E+01 2.763057706182E+03
 -6.408199596753E-01 4.941016982100E-01 9.383360856898E+00 -3.124455731701E-01 1.329541299905E-01 1.365125620139E-01 -1.779774408669E+01 -6.222947699122E+00 1.910775110994E+02
 3.698456529780E+01 -6.678356323218E+01 5.024930360707E-01 -2.127293908740E+01 3.613094473342E+01 -2.868802670672E-01 3.951823151234E+01 6.920955948167E+01 -1.202153269300E+00 2.795151265357E+03
 9.533075919474E-01 -1.855858578845E+00 -9.173405302233E-01 -2.896983988550E+01 5.678933666196E+01 7.111119955781E-02 1.991578983879E+00 -1.031872350770E+00 -3.777872430532E-01 8.820998294623E+00 2.829809293862E+03
 3.318452515028E-01 7.923711585735E-01 9.108456235876E+00 -5.305117049428E-01 -1.040476806415E-01 8.692484578356E+00 2.802606060133E-01 4.106033770573E-02 9.896823889790E+00 -1.731764815386E+01 -1.169614580016E+01 1.965942216521E+02
 1.628212438440E+00 -3.598023039859E+00 -3.967621285728E-01 4.698670932940E+00 -1.289372617732E+00 1.999199061803E-01 5.474179809648E+01 -8.490842944188E+01 8.385245351356E-01 -1.846601985064E+01 3.155683906605E+01 1.643202652011E-01 3.163224736915E+03
 8.885385816885E-01 -2.217054327734E+00 2.829547422300E-01 3.124225111094E+00 -7.654783680489E-01 -2.085087152809E-01 2.323038893185E+00 1.286751918129E+00 -4.897769965755E-01 -3.268290186232E+01 5.667319563862E+01 -3.926638180546E-01 1.656747185381E+02 3.363156202748E+03
 -2.380588964845E-01 -1.083561432660E-01 -2.029883214156E-01 -2.612785680354E-01 -1.086930606950E-01 -9.625729264114E-02 4.437616617318E-01 1.060403973615E+00 1.212372974787E+01 4.804591987050E-01 -1.174475149193E+00 1.059427113247E+01 -1.415453359722E+01 -1.256930797237E+01 1.988173423781E+02
 -1.218799992066E+03 4.481697035629E+02 8.247487057236E+00 -4.599183422913E+02 -1.750779153995E+01 1.095441524599E+00 9.111693895861E-01 -5.029544387030E-02 5.588817116858E-01 1.059084378674E+00 -1.777896938292E+00 2.888804995465E-01 -2.318043131989E+00 -1.422561550454E+00 1.973507776259E-01 2.815005003134E+03
 4.444590255698E+02 -7.480062503800E+02 3.202350933475E-02 -1.634499391447E+01 -1.428298947065E+03 1.028301451152E+01 -6.683061352788E-01 6.565160230097E-03 -1.375795925715E-01 -7.736444274326E-01 1.151062519233E+00 -1.108348069589E+00 1.497041128392E+00 9.358453646987E-01 -2.881778762158E-01 2.708439847989E+00 2.778113838843E+03
 5.859090862530E+00 8.431650985335E-01 -8.357224342166E+01 3.993518332708E+00 9.945106961552E+00 -8.069012780877E+01 2.276339718433E-02 8.776974962891E-02 4.803586244057E+00 -3.414077108205E-03 1.309622038156E+00 -8.955138933056E+00 8.911493847016E-02 2.447491935664E-01 4.996447694948E-01 -2.520922964157E+01 -1.951320718798E+01 1.926656498927E+02
 -1.225977569939E+03 -4.194705899469E+02 1.005819418327E+01 9.881593110684E-01 -6.930697586141E-02 -3.241696473220E-01 -1.231192193838E+03 4.397627287468E+02 8.740193596984E+00 -4.750278520064E+02 -1.285573722829E+01 1.827365613911E+00 -2.183823977025E+00 -1.412612589182E+00 1.059174532260E-02 -2.021301636107E+01 -3.243812903850E+01 1.162526862546E+00 2.817979626525E+03
 -4.188939051273E+02 -7.026111529883E+02 7.296613040093E+00 -2.417086419751E+00 9.600371576409E-01 -2.849262431576E-01 4.465064483029E+02 -7.376771822059E+02 -1.467688700247E+00 -1.676961656717E+01 -1.471935507190E+03 5.859095694023E+00 4.698657986033E+00 3.126778512303E+00 -8.215753909640E-01 3.727302048746E+01 5.847764748674E+01 -1.165809061400E+00 -8.169667253996E+00 2.793079441024E+03
 1.289691727848E+01 5.402265687844E+00 -8.297882471100E+01 -1.565477759646E-01 6.796662674043E-03 -9.034356636235E+00 5.426599965312E+00 8.474029095200E-02 -8.399442732396E+01 3.496395414294E+00 4.793079078392E+00 -8.367877343806E+01 8.394157785502E-01 1.389301810528E+00 -1.087168267184E+01 2.623671332047E-01 -8.575058620051E-03 8.689944439509E+00 -2.141295977249E+01 -1.063684406426E+01 1.948829151142E+02
 1.020276457258E+00 -2.616868465926E+00 1.126909918350E+00 -1.212237567818E+03 -4.252913427633E+02 6.878625062471E+00 2.568033344288E+00 -3.905465577151E-04 4.075792913162E-01 -1.183882691725E+03 4.395445711554E+02 6.081670287886E+00 -5.073006675980E+00 -3.305990283564E+00 -2.479058960332E-02 3.515941836450E+01 7.625667269329E-01 -1.226843329293E+00 3.966176139968E+01 2.245648577946E+00 2.578986504638E-01 2.741403813193E+03
 -5.643461820169E-01 8.959212022730E-01 3.231898637812E-01 -4.251585714450E+02 -6.994827261469E+02 5.485939407162E+00 3.400721445395E-02 2.087191151648E-01 -1.591540565572E-01 4.430182415519E+02 -7.401365147529E+02 -5.061780167112E-01 8.498627717355E-01 2.599695305443E-01 1.830154153549E-01 -6.554158696741E+01 4.936953908262E-01 8.664612767370E-02 6.708942473444E+01 -1.389214660118E+00 -4.540987045441E-01 2.882362187896E+00 2.751372917749E+03
 -1.104561762122E+00 -4.078058437696E-01 -9.215062002945E+00 8.174393942239E+00 3.936963585135E+00 -8.055547778016E+01 1.483172241686E-01 3.554926421317E-01 4.846763016487E+00 4.808094968221E+00 -1.372757913601E-01 -8.139398380462E+01 3.870525765930E-01 1.839781819381E-01 5.796301800274E+00 9.470732114368E-02 4.823224499884E-01 9.004067116337E+00 -8.871660726212E-02 -5.977933229781E-01 9.180911482829E+00 -1.478085317132E+01 -8.186588930338E+00 1.877241732476E+02
 2.049163579518E+00 -3.523092608581E+00 5.583930565306E-01 3.575809510325E+00 -1.357202370500E+00 2.847828814678E-01 -1.272983558130E+03 -4.515652468996E+02 7.988527828130E+00 2.978036977425E+00 -4.182176709898E+00 -1.205891692167E-01 -6.129357540980E+02 -6.887123461683E+00 1.995763267367E+00 -2.526509631538E+00 1.602883748854E+00 1.031600978610E-01 -2.319015777623E+01 -3.323316700165E+01 8.869425100683E-01 -4.593065525623E+00 1.969350424336E+00 1.579795252946E-01 2.643676849027E+03
 -8.156249867903E-03 -2.584413213680E-01 -7.034641169144E-02 8.338367265363E-01 -1.790677775863E-02 3.125830230377E-01 -4.656678412496E+02 -7.756065344135E+02 4.385359161815E+00 7.841539759583E-02 -7.914737659328E-01 6.288128345850E-03 -2.393233193613E+01 -1.804917974867E+03 6.471203167931E+00 -1.131629469200E-01 6.350960332180E-02 -1.071804959155E-01 3.592051060760E+01 6.282681887183E+01 -1.867869244552E+00 -5.151268404598E-01 -5.557213230591E-01 -4.200308227845E-01 2.066826959503E+02 3.015996742366E+03
 -1.941557566271E-01 -8.972808420534E-02 4.744917171571E+00 1.960855736382E-01 -1.187055566589E-01 -1.937866120303E-02 9.179728754689E+00 4.098095456134E+00 -8.029930363614E+01 -4.623501193004E-01 6.681420968127E-01 -1.053262605258E+01 2.030388779943E+00 5.686793256165E+00 -9.595965112376E+01 -1.823020346948E-02 3.537943114089E-01 -2.145235534216E-01 -6.343612010070E-02 4.243152557835E-02 1.025327976992E+01 -2.878012681614E-01 1.474253516630E-02 -5.076689622923E-01 -1.429675699155E+01 -1.054376629829E+01 1.746232563271E+02
 4.429889133974E-01 -2.749594069643E-01 -9.681205139305E-02 -1.153930103851E-02 -2.838849015937E-02 6.472952357958E-01 -7.269060316736E-01 -4.936716585769E-03 2.489234526205E-01 -1.254120446912E+03 -4.330534510138E+02 9.523073877726E+00 -1.225397344465E+03 4.295871638818E+02 4.656063716509E+00 -2.501961429036E-01 9.907790926456E-02 -1.973382574473E-01 3.965980816243E+01 -3.067612747610E-01 -1.754884924435E+00 -2.055899567650E+01 -3.331531807802E+01 8.464078290253E-01 4.998421431355E+01 -7.960736641390E-01 6.708183123818E-01 2.864814814441E+03
 -1.042568818978E+00 2.215611242811E+00 -3.424525374370E-01 -2.664025791362E+00 7.409247720581E-01 -1.518079739666E-01 -2.232816427519E+00 1.575246959809E-01 8.508217494450E-01 -4.378175248759E+02 -7.316063929526E+02 6.687177095351E+00 4.412905128690E+02 -7.939171406563E+02 1.701059144958E+00 1.354631144419E+00 -9.707680489303E-01 -4.117237895138E-01 -6.863272905601E+01 -2.017405141371E+00 7.318816487825E-01 3.925867482695E+01 5.858285394890E+01 -7.710420700036E-01 8.487158836519E+01 -6.709853087379E-01 -5.937390256111E-01 8.574080580130E+00 2.991125803706E+03
 4.431226859123E-01 8.629829231616E-02 4.674918142633E+00 -6.385108048049E-02 -2.365924671808E-01 4.615263343022E+00 -4.919079778602E-01 -8.102732577839E-01 -1.107889918654E+01 1.069916092143E+01 5.567425198657E+00 -8.863512493818E+01 3.079472839635E+00 9.811140078911E-01 -8.910613218066E+01 -1.734864846615E-02 1.715240529606E-02 -2.560312815775E-01 -6.946232322128E-01 8.229145821642E-01 9.391509083836E+00 -2.189910898936E-01 7.161436813541E-01 9.033730091739E+00 -5.254960040667E-01 3.856585672744E-01 1.168645931645E+01 -1.692089145726E+01 -1.462954970066E+01 2.042712872372E+02
 -4.763916463707E-01 1.403658421404E+00 -2.860969379428E-01 -2.475908138541E+00 4.383307052899E-01 -1.549385934982E-01 -2.360306596267E+00 -1.340978653984E-01 1.156629301538E-01 -7.746423485913E-01 2.596588820457E+00 -1.921077362364E-02 4.172006565905E+00 2.939093224137E+00 9.910640063279E-01 9.083739484966E-01 -7.304233666127E-01 -4.083534169372E-01 9.242074273895E-01 -2.428840024789E+00 -1.817710176734E-01 2.371357180771E+00 1.501928196222E-01 4.977053841452E-01 1.805466459341E+00 1.155420454547E+00 -3.574747953636E-01 -5.162401909692E-01 -2.089602825133E+00 -4.109640671488E-01 2.771593764853E+03
 1.993446783765E-01 -4.481810763719E-01 -5.567445596298E-02 6.391134183829E-01 -1.730100573056E-01 3.696909534875E-01 5.478109814398E-01 4.484574937534E-03 -2.803025101345E-02 3.182821306371E-01 -7.801414904467E-01 1.122467704233E-01 -1.231566548874E+00 -7.762868027739E-01 -6.863382900504E-02 -2.948383495044E-01 2.019966698521E-01 2.009894884821E-01 -2.692355675944E-01 6.632265957899E-01 4.800280553793E-02 -7.064257493369E-01 1.286022194763E-01 2.534901511329E-01 -8.240908305459E-01 -1.810231819607E-01 -7.816664818206E-02 5.875623479874E-02 6.382367627689E-01 -8.666958276225E-02 7.981730060309E+01 2.749011953542E+03
 -9.242606146238E-02 -4.419345661690E-01 -2.059961333784E+00 -3.564298399326E-01 -2.356700354671E-01 -7.957689550247E-01 -5.257391635183E-01 -1.213676608935E-01 -9.540493225144E-01 1.840593756292E-01 2.150738905309E-01 -3.558855238721E-01 1.377759092921E+00 4.363029532250E-01 1.256985155095E+00 3.465463141673E-02 1.007697823656E-01 4.872494205573E+00 5.746337441077E-02 -1.953547152276E-01 6.190978272890E-01 -3.379862104274E-01 8.231235030036E-01 6.346347178373E-01 -3.766663785468E-01 -3.275726388543E-01 -1.890092065155E-01 -1.100915075535E+00 -2.287017825932E-01 -3.687777735551E-01 -3.733713241458E+01 -3.635760435772E+01 1.977744309396E+02
 -2.638213558385E-01 -6.181675605423E-02 -5.491698950955E-01 8.356652582614E-01 -4.558099767191E-02 -4.614141882661E-01 1.225680052225E+00 2.361084987210E-01 -2.629128242289E-01 -2.049840279284E-01 -7.544750357365E-01 -2.181451759502E-01 -1.027128795083E+00 -1.154239659152E+00 4.503323961155E-01 -2.574141149059E-02 -1.269286275534E-02 9.006044015041E-02 -3.324145413474E-01 7.102089198443E-01 1.791421957541E-01 -5.042048041557E-01 -6.534394607852E-01 -2.214064863067E-01 7.960310242875E-01 -1.223932259330E+00 -1.457317631114E-01 2.641457899998E-01 6.654675113700E-01 4.353893600523E-02 3.813064311248E+01 6.226520373515E+01 -6.593660240228E-01 2.818898305274E+03
 3.215165428981E+00 -5.894136906860E+00 7.183663617668E-02 6.598790512638E+00 -2.247754158542E+00 5.099511975703E-01 4.578671801764E+00 -3.699952028323E-01 3.445575432493E-01 4.854263423133E+00 -7.838881132352E+00 2.820891057054E-01 -1.113801752047E+01 -6.606373402327E+00 5.395860773885E-02 -4.139221423382E+00 2.592308227039E+00 -9.844982681971E-02 -3.013339197436E+00 6.728136711253E+00 1.682807698688E-01 -7.902533917787E+00 2.650113629629E+00 9.743031111690E-02 -1.093767453003E+01 -1.685203765704E-01 2.831657043769E-02 -5.541144146311E-01 6.283274299312E+00 -1.015183502039E+00 2.621640529886E+00 -4.320644962153E+00 7.304287591094E-01 3.098265381313E+02 2.758611226395E+03
 -1.013963462339E-01 -3.156482670519E-02 -4.264041999461E-01 -4.935441182850E-01 7.653907281022E-02 -2.063447191753E-01 -8.947378765116E-02 6.794133632346E-02 5.472204496063E-01 2.493938196490E-01 6.044958032382E-02 9.196976823407E-02 1.300507983848E+00 5.440427041737E-01 3.180127880212E+00 1.685328227878E-01 -2.186224006936E-01 3.351003993764E-01 -7.474372784626E-02 -3.612287970361E-01 -1.376605178535E-01 3.669309334514E-01 -1.245022939133E-01 8.343541076462E-01 3.841475336541E-01 -2.092504194981E-01 -1.305522886519E+00 -4.705702820241E-01 -2.073270637670E-02 -1.475156518435E+00 3.712785760475E-01 -8.810213988298E-01 1.181195932502E+01 -3.690023166476E+01 -5.595907325384E+01 1.507534783904E+02
 -2.100701695906E+01 -3.223370030838E+01 -2.755357522286E-01 3.587036122578E+01 2.058740860198E-01 7.296867658896E-01 -1.457278636469E+00 1.394293039706E-03 -3.571031435878E-01 -1.329866437286E+00 2.299439249232E+00 -7.827388110058E-02 3.260783337208E+00 2.079055411805E+00 6.384768739994E-02 -1.252748116793E+03 -4.318281318673E+02 1.594795144044E+01 8.597414983730E-01 -2.015913826910E+00 -5.495865982197E-01 2.517482456983E+00 -6.550565501000E-01 4.783977171599E-01 2.834009476879E+00 3.590975808388E-01 -1.810296345045E-01 9.512364585813E-02 -1.837605324969E+00 3.541282483944E-02 -2.121837433142E+01 3.620694008017E+01 2.068305799805E-01 3.667485998409E-01 4.977344519274E+00 9.583552517122E-02 2.773399967905E+03
 3.756611099182E+01 5.859045815130E+01 -2.223914711476E-01 -6.518944016946E+01 1.646741502442E-01 1.165238837352E+00 2.157296507321E+00 2.706609554433E-02 2.165425670095E-01 1.621966332236E+00 -3.175726761965E+00 3.656202592898E-01 -4.575824602588E+00 -2.948936931905E+00 -1.378126166614E-01 -4.386226433066E+02 -7.176270238579E+02 8.514235796033E+00 -1.179290975582E+00 2.678986498905E+00 1.721472735120E-01 -3.143904915231E+00 7.656327156682E-01 3.594681492001E-01 -3.631179064136E+00 -5.855496503115E-01 -1.560201474094E-01 1.611471444338E-02 2.594523654361E+00 -1.624601996001E-01 -3.142054117280E+01 5.912155223969E+01 -7.418154435065E-01 -5.647054058625E-01 -6.510070000383E+00 2.513946891042E-02 3.246953144655E+01 2.797677017089E+03
 -9.956855017177E-02 -8.544498973467E-01 9.102340158446E+00 2.006563199957E-01 -4.126570229701E-01 8.567312885055E+00 -2.656706740663E-01 -3.638059680322E-01 -2.432772278104E-01 -4.187719652342E-01 6.574475492650E-01 -1.176069888441E-01 6.298570959619E-01 2.056649696377E-01 6.979580536820E-01 1.454979241576E+01 1.100139796564E+01 -8.324808167002E+01 7.689366153568E-01 -9.258118813200E-03 4.791608522371E+00 -1.884354846313E-01 -3.241845198370E-01 4.771234645505E+00 1.823770555665E-01 -3.066625775803E-02 -1.872292108920E-01 -2.678534642913E-01 -3.573861617976E-01 -2.177046610138E-01 2.712767299184E-01 -1.156317977251E+00 1.149032147877E+01 5.413196334650E-01 4.873435817194E-01 7.039840580569E-01 -2.528234309846E+01 -2.465465991145E+01 1.924029091825E+02
 9.146374243272E-01 -2.088613047949E+00 -4.234125873015E-01 -1.636979394372E+01 -3.332731822334E+01 -6.138785245728E-01 2.450581922844E+00 6.214757402798E-03 -1.202256250028E-01 1.514409605406E+00 -3.122497318565E+00 -1.889280455887E-01 -4.392351210391E+00 -3.015712591643E+00 1.374563041495E-01 -1.814404983882E+00 1.385242351530E+00 2.004097327093E-01 -1.296492180150E+00 2.858529460150E+00 1.844031318072E-01 -3.018461527274E+00 4.484894751771E-01 -4.414338507795E-01 -3.027564569489E+00 -9.202402834512E-01 9.408713063110E-02 -4.088872587935E-04 2.542029677226E+00 -1.705885262297E-01 4.248919575268E+01 -7.181096376887E+01 1.615940515399E+00 -2.379469004214E+01 3.616190225184E+01 -4.842525211788E-01 4.062186731916E+01 6.194250251358E+01 -1.475979200909E+00 2.799806930442E+03
 -3.292408268637E-01 7.143497896461E-01 2.231783244042E-01 3.421410075733E+01 5.910295005007E+01 -4.145331890330E-01 -8.344792778592E-01 1.319307390051E-02 7.456666971034E-02 -5.078339903356E-01 1.068209108866E+00 -3.050665943849E-02 1.450098010185E+00 1.012893466918E+00 1.112816039500E-01 1.007551827579E+00 -2.340885888737E-01 -8.041611094410E-02 4.668292759657E-01 -1.070914895987E+00 -1.976588497048E-01 1.026394561058E+00 -2.645317698502E-01 -7.999022636353E-02 1.035718961859E+00 2.615376480198E-01 -1.310657123130E-01 -1.763963866430E-02 -8.595495649283E-01 -1.154045522774E-01 -1.129400100988E+00 1.187483509582E+00 -5.156453278051E-01 -4.135109229285E+01 7.701474886872E+01 -8.507091576180E-01 -1.656350664143E+00 3.634407541037E-02 8.069331531108E-01 4.389034266983E+00 2.736353796119E+03
 9.666044539048E-01 -6.103597262183E-01 -2.135779662310E+00 4.002136308382E-01 -1.720430903650E+00 7.811588519183E+00 1.759434305597E-01 -4.768777724222E-01 -6.679849940136E-01 4.116650310860E-01 -9.738764725932E-01 -2.737770869247E-01 8.747535950897E-01 -2.554927741665E-01 2.505814208991E+00 -1.563095620879E+00 -5.518840908640E-01 -8.580157846221E+00 -3.922948008142E-01 5.053598857209E-01 5.262142504767E-01 4.596767689769E-01 1.585011164499E+00 5.412164967113E+00 -1.039486769699E+00 9.488117026346E-02 -6.996994513571E-01 -6.520530102375E-01 6.754234893111E-01 -1.056460275937E+00 1.070182903713E+00 4.200577370391E-01 1.562600205792E+01 2.912449586542E+00 -1.921309094353E+00 1.411073932464E+01 1.076788999909E-01 1.484218488879E-01 1.114449544274E+01 -1.540460607618E+01 -3.592476078012E+01 1.943881085067E+02
 -1.784793088280E-01 8.663016638878E-02 2.944894519926E-01 2.547108644370E-01 1.336615961950E-01 2.135875741900E-01 5.450233037210E-01 1.102063761817E-01 -2.820151907004E-02 -2.753621935501E-01 -2.031224894751E-01 4.047228646000E-02 -4.657906736683E-01 -5.539549596441E-01 -6.742333506924E-01 1.552792416583E-01 5.316358140318E-03 9.113153041719E-02 -2.810198382442E-02 2.770837183979E-01 -7.857474876691E-02 -7.175722542294E-02 -4.718265730954E-01 -1.967072128983E-01 6.186820348589E-01 -5.455768976800E-01 1.976984880219E-01 3.667109539144E-01 1.551099892088E-01 4.178980976663E-01 -1.124440436839E+03 4.022047737053E+02 1.066761129022E+01 -4.872182441319E+02 -3.137578843357E+01 5.251331688964E+00 -6.117168544150E-02 -1.925738794690E-01 -3.615722000618E-01 -6.592129797136E-01 1.906248006092E-01 -1.654678840240E+00 2.989330859502E+03
 -1.784076609956E+00 3.824187015415E+00 1.870058089377E-01 -5.106067305535E+00 1.427924935391E+00 -3.528806845672E-01 -4.295098681289E+00 -1.134526730338E-02 3.779425560320E-02 -2.793027429174E+00 5.844595545906E+00 -1.103911641078E-01 8.446562013011E+00 5.622157028963E+00 3.064535076478E-01 2.630475950698E+00 -1.655141717818E+00 1.661582903832E-01 2.229990988822E+00 -5.131183466938E+00 -1.446456006266E-01 5.601993110371E+00 -9.269755742460E-01 5.172791040036E-02 6.137603882428E+00 1.421293748632E+00 -6.285212784180E-02 -1.224479213102E-01 -4.723806699263E+00 2.592400982011E-01 3.905033675480E+02 -6.911024996072E+02 2.134475952885E+00 -2.559718130831E+01 -1.432918791541E+03 2.811521593410E+01 -3.561037796167E+00 4.772414174299E+00 -1.467880792019E-01 4.681166009505E+00 -1.716441434412E+00 -4.410828340569E-01 1.714153232639E+02 2.815713701444E+03
 6.063706690037E-02 8.355971265873E-02 8.699794455035E-01 2.056651379838E-01 1.566158691140E-01 3.202173015870E-01 1.059195292852E-01 -9.192565328187E-02 -2.089475619091E-01 -3.611363294196E-01 4.878105339781E-02 6.538794795036E-03 -9.929300248934E-01 -4.346143162413E-01 -2.886309677498E+00 9.992930636282E-02 2.484063098739E-01 -3.155776298506E-01 1.679926782963E-01 2.716966415268E-01 -6.178158218496E-02 -5.250051785833E-02 -1.610612477366E-01 -8.484991609478E-01 -3.721415067665E-02 2.404676820667E-01 1.110825830106E+00 6.053034419906E-01 -3.984635937114E-02 1.346849621679E+00 1.047216575256E+01 2.337883872807E+00 -8.283472904873E+01 6.312132868141E+00 2.798241387349E+01 -7.527245201434E+01 -1.354357013737E-01 3.363217870186E-02 3.172135634519E+00 -5.188816743096E-01 2.099503413898E-01 -1.366925307520E+01 -4.940399194536E+01 -5.426904543820E+01 1.876725167765E+02
 6.912074063018E-01 -1.617701144011E+00 1.788278875103E-01 2.198427292840E+00 -4.484088085838E-01 4.647013768522E-01 1.862426309005E+00 1.595398153723E-02 7.264728794590E-02 1.096789615754E+00 -2.580851676928E+00 1.996739488635E-01 -3.943355922136E+00 -2.522766706162E+00 -2.210905662296E-01 -2.004127768624E+01 3.532559684268E+01 3.614318489496E-01 -8.481315923860E-01 2.245383823701E+00 2.856093391976E-01 -2.389429129433E+00 2.949031657063E-01 1.861585764104E-01 -2.675987128463E+00 -5.923748228156E-01 4.196023853824E-02 1.834373912425E-01 2.079623826733E+00 -3.416644853214E-02 -1.296100722298E+03 -4.552795567347E+02 2.112717833461E+01 -1.050539001752E+00 -4.983530558388E+00 1.697423080331E-02 -1.160000555572E+03 4.202141104521E+02 7.281310264543E+00 -4.667705588124E+02 -1.690720466057E+01 3.343593137022E+00 -1.895683464641E+01 -2.874105198924E+01 1.179457219867E+00 2.806083624474E+03
 -3.868092589115E-01 5.271333933248E-01 -1.957939842557E-01 -5.203708053019E-01 8.206163146138E-02 -1.653066161495E+00 -2.832208954235E-01 8.184144452318E-02 -1.783303169832E-01 -5.178827411603E-01 6.841420142729E-01 -2.513394081541E-01 9.582769876400E-01 4.937001265436E-01 -6.424625962471E-02 -3.204359064704E+01 5.772527601581E+01 2.752610007981E-01 2.477304880521E-01 -5.082437700712E-01 2.300208071999E-01 6.179841172176E-01 -3.068975302202E-01 -4.922951822085E-01 1.228345284319E+00 -1.962253892623E-01 2.368372400841E-01 6.327724249698E-02 -5.789612886794E-01 2.632056048880E-01 -4.531719974049E+02 -7.391099174734E+02 1.573378199888E+01 -8.415423738586E-02 1.897774869945E+00 1.927936574851E-01 4.181393730823E+02 -7.120205418896E+02 2.592899110071E+00 -9.354502506604E+00 -1.453755554084E+03 2.000269656256E+01 3.385600242359E+01 5.720258581067E+01 -1.072743052129E+00 4.885373670452E+01 2.788772212760E+03
 -2.749180995539E-03 5.265885766560E-01 6.915992569761E+00 -3.504797371950E-01 1.947482140744E+00 -7.969068578550E+00 5.509084987404E-01 -1.215238850256E-01 1.224381200008E+00 -6.149659516947E-01 9.766272274314E-02 4.255056931235E-01 -1.231021359964E+00 -4.465823401749E-01 -1.019888741865E+00 2.028187582897E+00 -1.010087531536E+00 8.318705492913E+00 3.813454973419E-01 1.844327417333E-01 -7.640974938606E-01 7.320591775687E-01 -1.545976077854E+00 -6.350317026763E-01 7.638876692289E-01 5.410671204510E-01 1.817529543469E-02 1.419075348063E+00 1.506486502646E-01 2.855613407849E-01 2.034887675201E+01 1.313165513103E+01 -9.248756299066E+01 -1.382311334395E+00 -3.134957976988E-01 -1.178126909898E+01 5.856447838131E+00 2.460571837072E+00 -8.247970717637E+01 4.159532262185E+00 2.012631692412E+01 -8.912159689549E+01 1.593589517833E+00 1.196622543957E+00 1.095490890893E+01 -3.229344408955E+01 -3.603243664675E+01 2.010515795233E+02
 -2.703310644970E+00 5.154896351608E+00 5.095405520657E-02 -6.167750796304E+00 1.956843673560E+00 -2.986436452201E-01 -4.513812448596E+00 2.271073478419E-01 -1.971023858226E-01 -4.127591057573E+00 7.166082575024E+00 -1.412284227489E-01 1.033307979468E+01 6.278401858023E+00 2.043122986170E-02 3.609703148848E+00 -2.336389872595E+00 -6.481173503589E-02 2.755146246728E+00 -6.213407319358E+00 -2.544693609114E-01 7.103879570060E+00 -2.008813950887E+00 1.770051901065E-01 9.254631362528E+00 5.813693231635E-01 -9.194615464623E-02 2.850140273245E-01 -5.768804370521E+00 7.655346736005E-01 -4.544156976517E+00 1.469263605073E+00 6.202318021739E-02 -1.576773750883E+03 -5.267487471186E+02 2.757369682934E+01 -4.409019394578E+00 5.978460216097E+00 -5.031382479137E-01 -1.230411992482E+03 4.277613098729E+02 2.121316869765E+00 4.650548114507E+01 -1.248775079977E+01 -6.076101517706E-01 4.296910660208E+01 -2.254948450427E+00 -9.735447679510E-01 3.094066511641E+03
 1.630947170910E+00 -2.567420620288E+00 3.201888698573E-01 2.214642181235E+00 -1.005765844249E+00 5.878821883149E-01 1.010926765088E+00 -3.597221080301E-01 2.963612764735E-01 2.329566891720E+00 -2.804080219378E+00 2.679997220185E-01 -3.843242176387E+00 -1.928413243833E+00 -1.895505110471E-01 -1.874830302761E+00 1.145864972862E+00 -4.194231536112E-02 -1.073188972650E+00 2.358743120873E+00 -2.946345815521E-02 -3.097766871775E+00 1.760632444411E+00 2.528713165167E-01 -5.407631725335E+00 8.323077468471E-01 1.106756304845E-01 -5.720874623076E-01 2.193528050588E+00 -4.976004511376E-01 4.932240887749E-01 -4.432810601052E-01 -6.424078489058E-01 -5.575581117633E+02 -8.873984297763E+02 2.287777603344E+01 1.977322443716E+00 -2.344862432296E+00 -3.488682226574E-02 4.148946229022E+02 -7.227550841689E+02 6.865339676722E+00 -8.381120141600E+01 7.731377236022E+00 8.358955564634E-01 6.661942837469E+01 -2.349004539771E-01 5.461120174383E-01 1.259132774851E+02 2.534766496780E+03
 9.943550232131E-02 -1.729734787712E-01 5.496809688436E-01 -1.883323874062E-01 6.988247672369E-02 4.883293763719E+00 2.262001069416E-01 -1.088996217561E-01 4.195227086151E-01 -1.097680205277E-01 -2.317915166404E-01 1.291760815240E-01 -2.985326048784E-01 -1.975880973034E-01 2.643410640390E-01 1.241821605327E-01 3.154988563395E-01 2.292618588666E-02 3.456422973197E-02 2.338321525692E-01 -1.842693795237E-01 3.097961054630E-01 -2.903762650845E-01 -2.813342688489E-02 5.541415556823E-02 1.581885018403E-01 -2.208344908323E-01 3.232426984609E-01 2.377593784978E-01 -1.893905581920E-01 -1.177695471817E+00 -1.900860678412E-01 -1.149309321263E+01 2.819167917703E+01 2.175059468279E+01 -7.201442019481E+01 4.222459089907E-01 -3.206997075582E-02 3.834945202555E+00 2.537966523063E+00 8.949177061642E+00 -7.709135975345E+01 2.031881240871E+00 1.129810532226E+00 9.218352882311E+00 -1.367266433230E+00 -8.674469295566E-01 1.225736790109E+01 -3.383679381864E+01 -5.019353117211E+01 1.530855454951E+02
 6.362641787169E-01 -9.159129444441E-01 3.249805238426E-01 -1.216092631319E+03 4.399456992182E+02 2.958017983497E+00 6.195525798434E-01 -7.398963668374E-02 1.788809982853E-01 8.687853488679E-01 -1.296756432407E+00 2.275510419706E-01 -1.775009307704E+00 -1.029902268404E+00 3.928236782838E-02 3.914996725245E+01 -6.121321041090E-01 -2.890166405679E-01 -4.670619051049E-01 9.567250366924E-01 -3.162113098247E-01 -2.081929629119E+01 3.557036732403E+01 1.539364853391E-01 -2.068924473841E+00 1.186954477120E-01 -2.690596354131E-01 -1.041879610712E-01 1.034836749731E+00 -3.202352256224E-01 6.954892770453E-01 -3.125198735827E-01 -2.341561793973E-01 2.194564940603E-01 -3.204596711332E+00 3.897439413079E-01 5.005021042124E-01 -9.696825469900E-01 1.021335502886E+00 -1.218714446883E+03 -4.117499986282E+02 9.311920389757E+00 1.284583179376E-01 1.839171050852E+00 -2.032772181065E-01 3.617486445685E+01 -6.054199658097E-02 -5.498791679124E-01 -1.554783004774E+01 -3.424746412442E+01 7.574587289806E-01 2.803981234992E+03
 -9.058466479811E-01 2.242797738142E+00 1.026952482281E-01 4.429573510106E+02 -7.340464051929E+02 3.663671265273E+00 -2.840233817342E+00 -8.338175504463E-02 9.566474473843E-02 -1.538438999253E+00 3.634771701225E+00 4.190453009809E-02 5.520510606559E+00 3.644117443738E+00 1.980529445468E-01 6.760098728684E+01 -1.855875835633E+00 -7.210323169208E-01 1.347676496513E+00 -3.167540525191E+00 2.973461283903E-02 -2.964928596945E+01 5.868073490486E+01 8.440825146482E-01 3.444894022732E+00 1.057898364637E+00 1.283885145725E-01 -2.812296266657E-01 -2.979413880085E+00 4.794553131366E-01 -2.902039901432E+00 8.950029017070E-01 -9.038120448200E-01 1.108480377659E+00 6.834056537386E+00 -3.949068261931E-01 -2.023081019183E+00 2.930183642253E+00 -4.621006118995E-01 -4.088110471434E+02 -6.988263691268E+02 1.025570297482E+01 4.972769227646E-01 -5.754469046100E+00 2.227732466313E-01 -6.457982462467E+01 4.495462100458E-01 2.877185505210E-01 2.671611624833E+01 6.127490228371E+01 -6.981453971375E-01 2.903815777055E+01 2.832111459004E+03
 -2.835665964096E-01 6.040723361709E-01 4.808114415713E+00 7.889427416270E-01 5.042967620935E+00 -8.205438122168E+01 1.227049221193E-01 1.269231625172E-01 -4.102278296450E-01 8.906136684106E-02 2.544445294119E-01 4.419117970146E+00 -8.964061589152E-01 -3.801369860040E-01 -2.236805668840E+00 7.831152158447E-01 -3.393926312407E-01 8.790432936667E+00 1.332483689193E-02 -2.095596391635E-01 1.450018829589E-01 -2.962244258466E-02 -9.621378953618E-01 8.510346389499E+00 -1.510001818287E-01 6.540742648618E-02 9.041898329553E-01 3.302937038304E-01 4.589827090401E-02 1.046762095722E+00 8.363721806020E-01 5.279480763263E-01 3.648626660925E+00 -1.314294821909E+00 -2.002058840326E-02 4.367650859425E+00 -1.667141369451E+00 -1.181384760711E+00 -9.316508241770E+00 1.175402477276E+01 7.556971175875E+00 -8.609862230713E+01 7.326257323335E-01 -7.853066595637E-01 1.526446352160E+00 -9.884090117199E-02 1.589793018604E+00 9.064762544532E+00 1.241686133183E+00 2.137861900166E-01 9.364295488763E+00 -1.472541115299E+01 -2.818453236905E+01 1.917731700421E+02