#BIOSYM hessian 1
@Type: Hessian Update
@Units
 distance: 	A
 energy: 	Kcal/Mol
#header
@natom 73

#label
C1      C2      C3      C4      C5      C6      C7      C8      C9      C10     C11     C12     C13     C14     C15     C16     C17     C18     C19     C20     C21     C22     C23     C24     C25     C26     C27     C28     C29     C30     C31     C32     C33     C34     C35     C36     C37     C38     C39     C40     C41     C42     C43     C44     C45     C46     C47     C48     H49     H50     H51     H52     H53     H54     H55     H56     H57     H58     H59     H60     H61     H62     H63     O64     H65     C66     O67     O68     H69     O70     H71     O72     H73

#element
C  C  C  C  C  C  C  C  C  C  C  C  C  C  C  C  C  C  C  C  C  C  C  C  C  C  C  C  C  C  C  C  C  C  C  C  C  C  C  C  C  C  C  C  C  C  C  C  H  H  H  H  H  H  H  H  H  H  H  H  H  H  H  O  H  C  O  O  H  O  H  O  H 

#matrix
219
 2.811956380433E+03
 -2.045479280262E+01 2.832800976612E+03
 2.098076986556E+01 -1.442998420943E+01 1.952641371774E+02
 3.963379867834E+01 6.866214420366E+01 -7.870434705890E-01 2.792035886005E+03
 -3.116877929939E-01 -1.843296365612E+00 3.434265313303E-01 -2.519376031504E+01 2.753955212568E+03
 5.260363819861E-01 9.882853006838E-01 8.697032921062E+00 2.609928274285E+01 -4.878995455563E+00 1.908512811265E+02
 -1.902456615363E+01 3.588646147208E+01 -8.555089957567E-01 -1.373959851495E+00 1.046781671203E+00 6.080310562467E-01 2.838353365383E+03
 -3.356427467420E+01 6.019151958625E+01 -3.353779209366E-01 -6.544379825750E-01 3.022577381155E-01 -2.100872251556E-01 3.155995247512E+01 2.764866006569E+03
 -1.609097741899E+00 1.114153573129E+00 9.452721825525E+00 4.613500334669E-01 -3.117710024867E-01 -7.511768974770E-02 1.132577717459E+01 -1.547536636893E+01 1.943927865510E+02
 3.700563757769E+01 -6.626324953047E+01 9.938325457040E-01 -2.069448276750E+01 3.586863861033E+01 -6.043334690776E-01 3.963198659989E+01 6.935165888565E+01 1.018300039260E-02 2.794275885220E+03
 6.497590090143E-01 -1.715576771676E+00 -1.495484175080E+00 -2.973882236759E+01 5.557000173692E+01 -5.419640005588E-02 1.435487029297E+00 -1.902562901065E-01 -8.091269878763E-01 6.636569608110E+00 2.828853810694E+03
 5.647806895342E-01 -2.894790432179E-01 9.039075450045E+00 -1.086278183021E+00 3.475551307132E-01 8.779200021900E+00 1.300266007633E+00 7.623596921137E-01 9.369192594588E+00 9.076500830806E+00 -8.278638259769E+00 1.965341223307E+02
 1.652255078397E+00 -4.506034825277E+00 -3.387357015963E-01 4.899203222545E+00 -2.766373794515E+00 -2.321265736316E-01 5.461720853726E+01 -8.310280414116E+01 -1.917858782659E+00 -1.772771424512E+01 3.061951753322E+01 -6.388800899829E-01 3.159149709915E+03
 6.313678387143E-01 -1.992585072577E+00 2.955590835340E-01 2.384658350421E+00 -1.377009164131E+00 -4.333494063487E-01 1.511400028236E+00 1.927332538586E+00 -1.504022974962E+00 -3.293519694338E+01 5.720642833838E+01 -1.172455441668E+00 1.617205129479E+02 3.363961982899E+03
 -9.911966836299E-02 3.954912718564E-01 7.900853357151E-01 4.909508918073E-01 4.148670061465E-01 8.169956515815E-01 1.012829789470E+00 -2.688065725243E-02 1.518589931687E+01 -7.488620258104E-02 -3.475059830331E-01 1.031384916445E+01 4.520377470554E+00 -1.563882369242E+01 1.995193678280E+02
 -1.233139464282E+03 4.524233589276E+02 -1.059261129116E+01 -4.587205291177E+02 -1.756547381541E+01 -6.036538510684E+00 6.056333131156E-01 2.865716863841E-01 5.925418697734E-01 7.808788551048E-01 -1.599209852960E+00 4.173038535419E-01 -2.879131882852E+00 -1.296659292821E+00 -1.400803141649E-02 2.809863219655E+03
 4.486968937792E+02 -7.514051201737E+02 5.172604271813E+00 -1.514023221501E+01 -1.419717668400E+03 3.714996126026E+00 -4.131939760122E-01 -1.483526428654E-01 1.810911804597E-01 -5.698428288457E-01 8.543680502003E-01 -9.246940245464E-01 1.838278522311E+00 8.093331368932E-01 1.567815578423E-02 -8.648583992303E+00 2.767738741195E+03
 -1.359845945327E+01 8.134185607995E+00 -8.397038537853E+01 -2.051988063899E+00 1.361189491533E+00 -8.011009240014E+01 -5.713729478036E-01 2.135623366269E-01 4.749265004624E+00 5.998072067704E-01 1.645018431494E+00 -8.850387704918E+00 3.210516957989E-01 4.894747693007E-01 2.403468084304E-01 2.684577847579E+01 -5.715256900634E+00 1.922514526279E+02
 -1.215389036423E+03 -4.163602332451E+02 -6.979103328973E+00 4.122030294902E-01 -1.393987125880E-01 1.765720627464E-01 -1.241247064909E+03 4.420294818568E+02 -5.798035657926E+00 -4.747149976040E+02 -1.110486764339E+01 -3.316449331091E+00 -1.920839223335E+00 -9.492725173251E-01 2.200770894564E-01 -1.995192468694E+01 -3.288460812321E+01 8.662963741748E-01 2.816637582229E+03
 -4.160068669850E+02 -7.004904881912E+02 6.999887591662E-01 -1.474913423049E+00 1.355762911449E+00 2.738693308045E-01 4.497737250842E+02 -7.402926763129E+02 5.863840693989E+00 -1.602306317460E+01 -1.471331099032E+03 4.243176889370E+00 5.106299639886E+00 2.424036968183E+00 4.383770336395E-01 3.689115344586E+01 5.887421239043E+01 -1.490691710653E+00 -1.510795058048E+01 2.791852929278E+03
 -4.164308863609E+00 -1.659219447618E+00 -8.244255218914E+01 6.829332910500E-02 -3.653876878483E-01 -8.940004820409E+00 -8.048582227337E+00 6.659494968685E+00 -8.452521294198E+01 -9.301946761639E-01 3.337600753975E+00 -8.346493828196E+01 1.003852529422E+00 1.097118757451E+00 -1.104900489029E+01 -8.279534401651E-02 -2.629774309736E-01 8.736652886125E+00 1.362446287332E+01 -8.623200772495E+00 1.945289425846E+02
 5.950259683256E-01 -2.417700595207E+00 1.347614013276E+00 -1.198255198282E+03 -4.198188256279E+02 -1.058636918522E+01 1.801740717270E+00 6.367311909840E-01 -7.868583662715E-01 -1.188623928041E+03 4.397479981714E+02 -5.493802737014E+00 -5.942610001319E+00 -2.800523201755E+00 -3.389217236416E-01 3.506939925029E+01 5.629744520879E-01 -1.281250699356E+00 4.015722350405E+01 1.761812631733E+00 2.161150178219E-01 2.734545736605E+03
 -4.855577882085E-01 1.466231347260E+00 7.417461293999E-01 -4.222654734747E+02 -6.958795844138E+02 -3.684815433292E+00 -4.969641342752E-01 -1.638745117747E-02 9.798820682414E-02 4.434622422275E+02 -7.388479935054E+02 2.630580561140E+00 2.452542331253E+00 9.834666119939E-01 -6.719269671040E-01 -6.427947480265E+01 2.731341694166E-01 -3.101067781599E-01 6.743231424551E+01 -1.865373169866E+00 3.179518189221E-01 -4.599933160329E+00 2.757276318765E+03
 -1.214856698698E+00 1.703246989959E-01 -8.883464406765E+00 -9.029562051159E+00 -4.781124206259E+00 -8.017371603155E+01 6.321731662018E-02 1.509503622165E-01 5.341445413510E+00 -6.187408349155E+00 3.412507591428E+00 -8.155227218058E+01 2.718531574997E-01 2.238695334900E-01 5.432528685397E+00 4.440535876427E-01 4.566368062312E-01 8.884356757606E+00 4.621233738164E-01 -8.655550926905E-01 8.998760140731E+00 1.732894830988E+01 5.646162711956E+00 1.876949206611E+02
 1.351790943473E+00 -3.410089948638E+00 2.486154229473E-01 2.372479192842E+00 -1.352528992548E+00 -2.946156102952E-02 -1.269262271988E+03 -4.502363842545E+02 -2.321836476599E+00 2.471637011172E+00 -3.313553086526E+00 -2.262451307620E-01 -6.127107214294E+02 -4.712446379362E+00 -1.014565504437E+00 -2.007651854352E+00 1.151141458451E+00 2.897227077618E-01 -2.266395468242E+01 -3.429958037278E+01 6.921382835478E-02 -3.484512932020E+00 2.370993505217E+00 7.515474219601E-01 2.640978657248E+03
 1.705068687620E-01 -4.787976933045E-01 -3.973338246689E-01 1.062108825536E+00 -7.006017428071E-01 1.028623929044E-01 -4.649919992965E+02 -7.751208928852E+02 1.467964242043E+00 3.257807485119E-01 -1.264909944271E+00 5.776253257073E-01 -2.384744459369E+01 -1.804801232917E+03 8.319064585577E+00 -3.998422930431E-01 2.181446447391E-01 -3.801313415888E-01 3.594419719083E+01 6.323642218735E+01 -1.630986774164E+00 -9.853777071189E-01 7.128421712452E-03 -2.465338588860E-01 2.043034963714E+02 3.013961444353E+03
 1.162478723278E-01 -1.616190989059E-01 4.426069851192E+00 -9.501376052151E-02 -2.720368555088E-01 -6.168037909817E-01 -2.106150087410E+00 2.315056120207E+00 -8.099005204323E+01 -3.946303580683E-01 -1.159201059044E-01 -1.051215313302E+01 -2.123648577267E-01 8.628777244235E+00 -9.618845325278E+01 -2.353990283842E-02 -7.247295336321E-02 -1.756336865921E-01 -2.378685212736E-01 -1.035413745889E+00 1.036532413871E+01 5.503217542506E-02 3.839526823154E-01 -4.004441114537E-01 6.320201591109E+00 -1.320827811789E+01 1.746258032639E+02
 -9.101003127317E-02 6.763748328737E-01 -5.826415313163E-01 -8.304325698697E-01 5.718083039470E-01 4.585495044128E-01 -1.115107411231E+00 -2.894375408346E-01 9.266490602686E-01 -1.250247390551E+03 -4.319663254732E+02 -1.275019052438E+00 -1.228931813005E+03 4.317462025769E+02 -4.035606530255E+00 4.251528353255E-01 -2.887555521134E-01 -4.596411827957E-01 4.012315469129E+01 -1.096594388053E+00 -1.313596321552E+00 -1.944219837070E+01 -3.411046748774E+01 4.478094626706E-01 5.135055887609E+01 -4.113370189056E-01 6.811993934626E-02 2.863356938438E+03
 -4.065802005280E-01 1.088509973602E+00 -3.016825824389E-01 -8.059383748121E-01 5.068541804043E-01 -2.487943901366E-01 -5.788993540483E-01 3.819243071917E-02 3.136170339082E-01 -4.367347906364E+02 -7.335173077355E+02 1.367259471594E+00 4.396739190804E+02 -7.961631050323E+02 3.771336316699E+00 5.993477540208E-01 -3.439971625725E-01 -6.177952974793E-01 -6.926337636627E+01 -2.795177752204E-01 5.665024083885E-01 3.731155412385E+01 5.842594934114E+01 -8.108688747658E-01 8.341482764960E+01 -1.071073840046E+00 7.463988940743E-01 4.656235683358E+00 2.982658213743E+03
 1.580664895814E-01 -5.846394470474E-02 4.257940231613E+00 -4.078995666047E-01 -2.258185765225E-01 3.658362485592E+00 -9.315878003596E-01 -2.105182898885E-01 -1.164086532822E+01 -1.677961745266E+00 4.424186463872E-01 -8.854410267419E+01 -3.550345170316E+00 4.959182980151E+00 -8.901526168462E+01 5.430753410417E-02 -1.898840924451E-01 -2.080990171721E-01 1.753588836956E-01 8.636559717928E-02 9.430991586295E+00 3.188261421821E-02 5.407658343186E-01 9.403661580560E+00 -4.040867462528E-01 -8.973010725298E-02 1.174956086252E+01 6.544884608664E+00 -7.526800340987E+00 2.038128219245E+02
 -8.889659131365E-02 4.704106964202E-01 -1.415589568904E-01 -4.710396194282E-01 2.181613699770E-01 8.129884636733E-02 -2.959091625698E-01 -1.299956854426E-01 4.046032203151E-01 -3.317452016260E-01 6.282024497715E-01 -5.776168606943E-02 1.292356230014E+00 5.945219541561E-01 5.549306038355E-01 2.651201485930E-01 -1.451962869455E-01 -5.151563562137E-01 1.558649372331E-01 -5.180674229053E-01 -1.908318812333E-01 5.834892084875E-01 -2.749970077119E-01 5.011540071550E-02 6.745487094922E-01 1.880672261227E-01 -2.077215140062E-01 -2.073058780098E-01 -2.269838044223E-01 -1.744060726834E-01 2.828958540921E+03
 2.721399289337E-02 -3.302379195900E-02 2.259243599954E-01 1.420359071323E-01 -1.567195518039E-02 5.630523146521E-01 2.051674668341E-01 1.416669220458E-01 -1.469737194926E-01 1.147803481904E-01 -2.773300195794E-01 2.000065665124E-01 -7.428081951526E-01 -3.754710104218E-01 -2.364668007912E-01 6.736201007771E-03 -6.546831149848E-02 2.675932270429E-01 -5.736372731492E-02 1.878292217756E-01 2.297399601028E-02 -2.145314386700E-01 1.135375174470E-02 2.353716230682E-01 -1.259179918588E-01 -1.665311841444E-01 7.144002307553E-02 1.270601074293E-01 7.308854475006E-02 8.010934325652E-02 -4.445683688969E+01 2.793263989360E+03
 -3.896561201241E-01 5.029499561890E-01 -2.090954387020E-01 -1.081197568738E+00 5.430538111961E-01 1.722676192064E-01 -9.932496723127E-01 -3.575471658067E-01 -1.617205893972E+00 -4.328697800802E-01 1.057452259609E+00 2.571882270805E-01 2.874487755089E+00 1.385509239897E+00 -1.773019148624E+00 6.819960887059E-01 -4.334522552238E-01 4.448446029690E+00 2.954528641115E-01 -1.000862328886E+00 2.307591804193E-01 1.097340536222E+00 -1.318260751148E-01 -3.780295443049E-01 6.880040073678E-01 4.803882540666E-01 5.586672021919E-01 -6.526515093421E-01 -2.700068695609E-01 3.200979728329E-01 5.657217857299E+01 -2.173527451732E+01 1.940400042540E+02
 -5.895826474456E-01 1.328833705949E+00 -2.537234801718E-01 -1.970093125267E-01 1.328163647099E-01 -4.476016708933E-01 4.678645484442E-01 4.492139067386E-01 -1.152263106076E+00 -9.798264737621E-01 5.977348411540E-01 -2.500026347048E-01 5.470338510021E-01 -1.256039876959E-01 -1.291952910515E+00 6.826353993678E-01 -2.758179138025E-01 -1.594298907344E-01 2.667441910322E-01 -5.264661864804E-01 2.363002532352E-01 8.422424640558E-01 -1.202281181222E+00 -7.279788838491E-01 2.929739065916E+00 -9.895410253843E-01 4.816430203578E-01 6.006253656074E-02 -6.768765409890E-01 6.908512584077E-01 4.730914985522E+01 7.909449096496E+01 8.594096298832E-01 2.734463467349E+03
 9.410197519440E-01 -2.478615172667E+00 -1.408967475473E-01 2.498209957447E+00 -1.425498865446E+00 -1.755657089515E-01 1.779894591811E+00 6.158044166657E-01 -5.793385020474E-01 1.825263574527E+00 -3.230046696981E+00 -1.169845900362E-01 -6.329125380226E+00 -2.909402904441E+00 -5.948562902296E-01 -1.605702069115E+00 9.040339412208E-01 -7.075334691725E-02 -9.438107742862E-01 2.653272719367E+00 -8.292858850829E-02 -3.091813438613E+00 1.447649324296E+00 2.871690652087E-01 -3.559467719652E+00 -9.743239385501E-01 2.223187731702E-01 1.068235273574E+00 1.183045814594E+00 4.124243257859E-01 -6.896764993510E-01 -2.329312047142E+00 1.617879042941E+00 2.633652756504E+02 2.957476611995E+03
 1.317863161854E-01 -6.455608077004E-01 2.351944098825E-02 -3.144324561425E-01 -5.875210715725E-02 8.445143450023E-01 4.100494949029E-01 5.052639877817E-02 -8.889462814788E-01 2.479751891000E-01 -6.505449395795E-01 5.127664138779E-01 -8.005088801828E-01 -5.786911310473E-01 5.205683281376E-02 2.516844220117E-01 5.281547063709E-01 2.207143436122E-01 -5.957531997734E-02 4.982621051832E-01 7.786370185632E-02 -1.620381368957E-01 1.474332131623E-01 -1.092566261437E-01 -4.533137728585E-01 -3.105386702779E-01 -3.282805870927E-01 1.519458349698E-01 1.823999902425E-01 -7.490315056605E-01 2.182737568668E+00 1.142228482964E+00 1.258866330377E+01 7.970192921678E+01 9.688779305061E+00 1.514368132077E+02
 -2.052717305398E+01 -3.231573520021E+01 -1.117587414186E+00 3.539122890657E+01 7.478761767281E-01 2.009093269217E+00 -1.330527047537E+00 -5.955486401585E-01 -2.852449940864E-01 -1.183248090364E+00 2.330100653217E+00 1.001034657886E-01 4.580131711867E+00 2.237878416264E+00 -7.063702529734E-02 -1.235170362596E+03 -4.275455813281E+02 -1.113991587111E+01 6.083332801299E-01 -1.900046322001E+00 -6.415879771228E-01 2.354225907209E+00 -9.533404325681E-01 -1.737210574116E-02 2.110492652024E+00 1.060087175480E+00 1.155552142466E-01 -8.154577402684E-01 -7.306769185826E-01 -5.617736990704E-02 -1.934775455140E+01 3.429142605330E+01 -1.722921108623E+00 -1.256306428248E-01 2.295619817036E+00 4.545489109194E-01 2.780429171888E+03
 3.708414553859E+01 5.839749022110E+01 1.382487947965E+00 -6.406069920958E+01 -6.825576816197E-01 -1.230127970783E+00 2.153904585239E+00 9.896624028914E-01 -2.133556270207E-01 1.534657845355E+00 -3.337297828839E+00 2.415357797651E-01 -6.677475661682E+00 -3.320886544072E+00 -2.516838235119E-01 -4.339812270813E+02 -7.130955473031E+02 -3.233217215124E+00 -8.500279057088E-01 2.530670879690E+00 -1.449518385892E-01 -3.162541629242E+00 1.210174468822E+00 4.716822087541E-01 -2.684732069429E+00 -1.615504143783E+00 3.381174472322E-02 1.269288137171E+00 1.029568348980E+00 2.792122845040E-01 -3.174591785929E+01 5.693830942358E+01 8.853824598479E-01 -1.395842370702E-01 -3.194408304469E+00 -1.191041573048E+00 1.568187140453E+01 2.801278373919E+03
 -9.105395516149E-01 -1.438382876545E-01 9.682176259361E+00 2.231362931461E-01 -8.473486855547E-01 1.002977635856E+01 -4.341500867617E-01 -1.858517580759E-01 -9.467203962644E-01 -3.656102774123E-01 6.861985191063E-01 4.714985921811E-01 1.098069628402E+00 4.227370715422E-01 -9.672138604695E-02 -1.357427467422E+01 -2.085504298274E+00 -8.259664723055E+01 6.381798724636E-01 -4.182095064685E-01 4.674783598257E+00 1.262822773117E-01 -4.851464715219E-01 4.286111254443E+00 5.472446336888E-01 -1.381504885524E-01 -3.359839996834E-01 -3.140505385528E-01 -3.823801963110E-01 -5.911172125563E-01 -1.168652066531E+00 1.743610290901E+00 8.952541701991E+00 -4.058065350568E-01 5.740837422256E-02 1.203593220332E+00 3.593591814018E+01 -1.500962945201E+01 1.934915660332E+02
 8.404777913234E-01 -2.260562563756E+00 -4.225944381831E-01 -1.555278164665E+01 -3.327195537744E+01 -1.404970165284E+00 2.719348166300E+00 1.033675646559E+00 -1.256142874012E+00 1.725648735924E+00 -3.639603999094E+00 -2.941888639351E-01 -7.239003387810E+00 -3.674935668146E+00 -6.655172718934E-01 -1.881813365871E+00 1.489467962770E+00 7.826280680090E-02 -1.074007227862E+00 3.032492088256E+00 6.131965246823E-02 -3.259762017904E+00 1.027693811202E+00 -2.615834632271E-01 -2.388684035930E+00 -1.981216652011E+00 6.219615605691E-02 1.308898952102E+00 9.951184450589E-01 4.036631713152E-01 3.912963430489E+01 -6.879800939314E+01 2.026630700013E+00 -2.382903724508E+01 3.763339854952E+01 -2.228601174374E+00 4.309757113198E+01 6.352359973225E+01 3.026465912235E-01 2.820588907702E+03
 2.343793439740E-01 -6.112053859911E-01 -1.090852280389E-01 3.391612490030E+01 5.633620218214E+01 1.306568162493E+00 -2.077263054598E-01 -1.404786087934E-01 2.175908958288E-01 3.926271362791E-01 -2.811989558473E-01 -8.681348591820E-02 -6.108136327013E-01 -3.547733973354E-02 7.121885224489E-02 2.761760497234E-01 4.631756281364E-01 -4.055563134119E-01 -4.992665360472E-02 1.761948171635E-01 -3.226357331885E-01 -4.146227192636E-01 3.577414490492E-01 -1.347960389127E-01 -1.287967185961E+00 3.975613090433E-01 6.980706049694E-02 2.599141624081E-02 2.638280462848E-01 -5.858214732450E-02 6.033891525871E-03 4.628183499003E-01 -1.354514794963E+00 -4.180842296154E+01 7.392328698718E+01 2.087069053485E-01 -3.919629001283E-01 -4.321086596836E-01 6.499136685988E-01 -6.802834356699E+01 2.781287445623E+03
 7.871905635744E-01 -8.072365276477E-02 -3.605960840491E-01 -1.271153746969E+00 -3.785134410440E-01 9.039359299593E+00 -2.154808796872E-01 -7.306511231097E-01 -3.848839152790E+00 -4.306107940258E-01 -2.550348701991E-01 8.147778150586E-01 2.807889830264E+00 6.176876094746E-01 -3.277217904095E+00 4.749923152746E-01 -4.806330242553E-01 -8.560738776602E+00 8.209672020985E-03 -2.010608369477E-01 4.556292166904E-01 2.093834206089E+00 7.311971880791E-01 3.699771560789E+00 3.237566326920E-01 4.735769412859E-01 6.302638914843E-01 -1.820905105859E-01 4.571822427567E-01 3.346857555609E-01 1.389801748641E+00 -2.498968720059E+00 1.230702866579E+01 -1.663194155717E-01 3.490438576560E+00 1.514734993049E+01 -2.624470674781E-01 2.274093756319E+00 1.041804242308E+01 3.533198587291E+01 1.767764601811E-01 1.943382347469E+02
 -8.288765627660E-01 1.960012889447E+00 9.601635058587E-02 -1.145597928488E+00 7.634546441930E-01 -3.010136888534E-02 -5.265736486917E-01 2.142983301568E-02 3.377183164405E-01 -1.460665869255E+00 1.827650618585E+00 -9.163733523422E-02 2.948177371129E+00 1.151828588823E+00 -7.870039671094E-02 1.107806471823E+00 -6.470006599765E-01 1.626853105599E-01 6.046969277204E-01 -1.481261040647E+00 1.471577383435E-01 1.814584019577E+00 -1.423666640845E+00 -2.327303925072E-01 3.371865919427E+00 -1.520115338416E-01 1.653140878018E-01 -3.293955722813E-01 -9.455730554270E-01 2.565158517891E-01 -1.284299646283E+03 4.510073910058E+02 -3.034514415951E+01 -5.149874106111E+02 -2.202640543197E+01 -1.876480243082E+01 -1.133096202974E+00 1.359556681063E+00 -1.822057309402E-01 8.719802439482E-01 9.779539136458E-01 -1.974650359480E+00 2.556956476212E+03
 -7.132092142071E-01 1.990307341008E+00 6.161625329365E-02 -2.394291205326E+00 1.256697949052E+00 -6.403611479633E-02 -1.862906913560E+00 -7.423920049363E-01 5.859019819752E-01 -1.472726442695E+00 2.956388922764E+00 8.838556275047E-02 6.141147995477E+00 2.929067762085E+00 7.794467195327E-01 1.356176595545E+00 -7.377216669424E-01 -1.093786780234E-01 8.274032854135E-01 -2.438041581462E+00 1.239273763885E-02 2.776199408001E+00 -1.017175794825E+00 -3.781692017689E-01 2.612301506421E+00 1.215882151530E+00 -3.223211101054E-01 -1.102759775544E+00 -9.602830356299E-01 -6.205823836054E-01 4.798911500881E+02 -7.506379339150E+02 7.095886947940E+00 -5.284961068274E+01 -1.664183364794E+03 -4.588575473494E+00 -2.162662962029E+00 3.154491607990E+00 -3.277294722226E-01 3.506497251099E+00 -2.685014567453E-01 -1.280821320014E+00 -1.458637811469E+02 2.773121264532E+03
 -3.706068612408E-01 7.138755365892E-01 -4.410049434680E-01 -1.050155988719E+00 2.401344082375E-01 -4.391748214162E-01 -1.105712772341E+00 -2.651664165635E-01 -2.582788750061E+00 -5.969691683850E-01 1.206023894968E+00 -4.235675856734E-02 3.666850123887E+00 1.749199175275E+00 -3.599396497884E+00 6.225365036332E-01 -5.693689674249E-01 -1.204934854673E-01 1.773967892193E-01 -1.232464077255E+00 3.673931167844E-01 1.288083982455E+00 -1.328301492105E-01 -5.007396939126E-01 1.271332662599E+00 2.844296593545E-01 1.312499543727E+00 -8.642375747990E-01 -3.412839062143E-01 1.593545787634E+00 -3.401830985653E+01 1.215414428984E+01 -8.693431795432E+01 -1.632218888222E+01 -8.577726181356E+00 -7.868056881344E+01 -1.145420689677E+00 1.282813203777E+00 4.678772688515E+00 2.904443226212E+00 1.039326464892E+00 -8.997651027077E+00 9.904914302780E+01 1.803868931316E+01 2.407554733302E+02
 4.188021201685E-01 -1.297964732792E+00 3.186788727951E-01 1.218574198591E+00 -7.974186139235E-01 -1.451592261472E-01 1.096960121319E+00 4.934391365052E-01 -2.641206532320E-01 9.499706722392E-01 -1.982696298753E+00 1.630037199074E-01 -3.922527341887E+00 -1.881503293767E+00 -4.143714334336E-01 -1.987353335022E+01 3.517391770257E+01 1.353494215092E-01 -4.304657957149E-01 1.545023014471E+00 2.404998078123E-01 -1.756973160743E+00 6.838743790814E-01 4.204321494381E-01 -1.838196400540E+00 -7.919426811883E-01 1.207325001763E-01 6.930162302949E-01 6.593242712599E-01 2.403940119206E-01 -1.209435520752E+03 -4.176873641423E+02 -1.943188453499E+01 -9.118359690087E-02 -1.783846526094E+00 7.332222632482E-01 -1.186877912484E+03 4.262461374477E+02 -1.782098881153E+01 -4.748992732707E+02 -1.953648361584E+01 -5.690172615364E+00 -1.940818855119E+01 -3.286687568936E+01 9.529663809315E-01 2.754788710521E+03
 -6.780554532969E-01 1.839374710315E+00 -8.108291307704E-02 -1.986594480175E+00 9.657722648052E-01 -1.601081865640E+00 -1.502271635107E+00 -5.514240556076E-01 -7.426255342852E-02 -1.346722437668E+00 2.522124079758E+00 -2.113027897841E-01 4.980674168825E+00 2.393507084992E+00 -1.400498448711E-01 -3.168305639228E+01 5.772940741182E+01 -8.518252822074E-01 6.942541718125E-01 -1.981796668188E+00 3.484602636628E-01 2.378895609073E+00 -9.726617601745E-01 -5.189356916399E-01 2.544777669141E+00 9.464540678160E-01 8.709519914630E-02 -9.375092303325E-01 -8.821150331449E-01 -2.935655979922E-02 -4.246630587302E+02 -7.049172016585E+02 -5.220522119252E+00 -1.314102685753E-01 2.496926702968E+00 1.876999078594E+00 4.275212322303E+02 -7.172673599688E+02 7.058738377537E+00 -4.839408024232E+00 -1.493649061023E+03 9.819180056670E-01 3.497970148339E+01 5.887800701880E+01 -1.928395881720E+00 -4.077366111916E-01 2.798109446567E+03
 -5.576799380520E-01 4.395882549300E-01 4.804306357408E+00 1.020033468895E+00 1.543789968204E+00 -9.199528427617E+00 1.123544989565E-01 -2.922270957030E-03 1.827344248474E+00 -2.161775499184E-01 3.884742444322E-01 -3.489914579296E-01 -7.864545118389E-01 -3.231266568185E-01 1.697956633479E+00 6.286086443866E-01 -1.047423614135E+00 8.880085217417E+00 3.668328300902E-01 -9.578187103419E-02 -2.118617758366E-01 -4.089115453442E-01 -6.751868142946E-01 3.101920479895E-01 2.463949081431E-01 8.728286602020E-02 -4.535879092080E-01 3.010586601650E-01 -1.695789075999E-01 -1.840550868725E-01 -1.887126057266E+01 -5.162673036584E+00 -8.258554834383E+01 -6.475802510939E-01 -7.944160883334E-01 -1.165091191547E+01 -1.976334656727E+01 9.955713080495E+00 -8.204060845330E+01 -4.241756437765E+00 -2.022294884004E+00 -8.526450550897E+01 1.409544091995E-01 -7.802247808260E-01 1.031666867091E+01 4.192217488354E+01 -2.285125202639E+00 1.921107468091E+02
 -9.983579036563E-01 2.711673616832E+00 3.231918647246E-01 -3.209057532464E+00 1.927006743323E+00 1.826707423047E-01 -2.847140182237E+00 -1.127565917954E+00 1.753286592419E+00 -2.046211352092E+00 4.265749787604E+00 1.503003086144E-01 8.608233570021E+00 4.239044293254E+00 1.265156337053E+00 1.737962880454E+00 -1.247471044907E+00 -1.638940490887E-01 1.150410359652E+00 -3.457390236195E+00 -7.097950812642E-02 3.755730109483E+00 -1.302841670404E+00 5.629209310518E-03 3.334885239130E+00 1.954172711308E+00 -2.683135782311E-01 -1.494247781601E+00 -1.291835604596E+00 -6.166596330310E-01 -9.278747886044E-01 5.296584506303E-01 -4.636736799317E-01 -1.447087923204E+03 -5.053013152259E+02 -3.296315544387E+01 -3.079047366753E+00 4.570120805050E+00 -7.203593209905E-01 -1.333362945172E+03 4.630301064941E+02 -1.797990229174E+01 4.919112666031E+01 -5.296133759727E+00 -2.823849995773E+00 4.418732111277E+01 -3.518241910896E+00 3.627337638618E-01 3.065324666151E+03
 1.683767442004E+00 -4.206235628340E+00 6.253544890329E-02 3.249254609538E+00 -1.836087895183E+00 4.113384983488E-01 2.044389763787E+00 4.523423339527E-01 -1.663193041686E-02 3.147904815483E+00 -4.650364108495E+00 2.285129839790E-01 -8.410948986573E+00 -3.684386624716E+00 6.466598581027E-01 -2.558834409288E+00 1.310428716886E+00 3.099209514258E-01 -1.436390207367E+00 3.794641524694E+00 -2.632335975426E-01 -4.556569100212E+00 2.766804046018E+00 9.543307327024E-01 -6.754328981416E+00 -5.875521930855E-01 -4.501049770387E-01 1.278149850049E+00 2.036481177265E+00 -3.969692487421E-01 8.665496868888E-01 -2.001866113281E-01 1.809192505886E+00 -5.054539658711E+02 -8.489397540953E+02 -1.602461282572E+01 3.076561800500E+00 -4.006267490575E+00 1.077061728295E+00 4.443155637041E+02 -7.614660399301E+02 3.697183894468E+00 -8.502063687399E+01 6.416844330254E+00 -3.473510818908E-01 7.256362229525E+01 2.924131191957E+00 1.894030295826E+00 4.365571172820E+01 2.537848692630E+03
 1.859163534894E-01 -5.815557532156E-01 1.022650376967E-01 -3.474292157324E-01 -2.983345656227E-01 4.322852826923E+00 1.236704246221E-01 -3.055250319809E-01 1.331144773544E+00 -2.745013248298E-01 -2.377115904357E-01 -3.493392199071E-01 -1.048815658340E+00 -4.445318233333E-01 9.319745785937E-01 -1.227369869695E-01 9.670721124163E-01 -1.381833908844E-01 2.170007062855E-01 6.002256430771E-01 -1.518785623651E-01 9.761124622904E-02 -1.288503753140E-02 1.590576606994E-01 -4.344169253699E-01 4.187712930858E-01 -7.872990870042E-02 4.553522702299E-01 1.603428250872E-01 1.203104103547E-02 -1.534180721684E+00 -7.128798369195E-02 -1.165066445867E+01 -3.142618065981E+01 -1.531246342533E+01 -7.124855748343E+01 9.173460567020E-01 -3.678294329171E-01 3.963072873843E+00 -1.665982326841E+01 6.586897204931E+00 -8.159509033841E+01 1.763478472544E+00 2.163741832551E+00 1.401880486619E+01 2.563030644326E-01 -1.538786651311E+00 1.041550980418E+01 5.440007998948E+01 1.778880943116E+01 1.542768433902E+02
 1.093883644593E-01 -1.121320530355E-01 -1.768098606996E-02 -1.254008598931E+03 4.510983882284E+02 -1.079487906747E+01 -2.574640986358E-01 -9.791056922574E-02 2.468468229078E-02 1.388209381148E-01 -5.762599568093E-02 2.459090873746E-01 -6.110454452484E-02 5.659914642383E-02 -1.134094980816E-01 4.072488082006E+01 -7.071614099053E-01 1.303900930855E-01 3.370084419533E-02 -1.214313912191E-01 -3.667897441389E-01 -1.985320785979E+01 3.574786910144E+01 -1.167657199657E-01 -5.983223326127E-01 2.994333232069E-01 3.729429973805E-02 3.480607723579E-03 1.496972196433E-01 -2.760188392984E-02 8.919873449276E-02 -9.600479028447E-02 -7.036311946937E-02 5.259870641583E-01 -1.232599073077E-01 2.954894729082E-01 -4.222590140913E-01 2.002754336942E-01 1.683588084215E+00 -1.131472810075E+03 -3.787918054440E+02 -1.527056858933E+01 3.200043608487E-01 -1.297310196413E-02 4.372341860626E-02 3.555413032289E+01 -1.059728881807E-03 -8.057036785128E-01 -1.841197358075E+01 -3.355950633719E+01 -1.771480476476E-01 2.762444395106E+03
 -1.044589363059E+00 2.997647930731E+00 3.670190506387E-01 4.593857942629E+02 -7.478930010121E+02 4.652234554117E+00 -2.881874008404E+00 -1.146706009026E+00 1.330494320384E+00 -2.199956129703E+00 4.556040766761E+00 2.984358086581E-01 8.949242694963E+00 4.371052069495E+00 8.846190242994E-01 6.952649400694E+01 -1.970792738507E+00 4.308165814650E-01 1.187415586523E+00 -3.623953292703E+00 3.787904351444E-01 -2.960509799973E+01 5.831677949641E+01 3.199693252415E-01 3.828655725895E+00 1.985134860943E+00 -1.764553040014E-01 -1.660590276843E+00 -1.431357374549E+00 -3.937673869766E-01 -8.992436547815E-01 5.861220688733E-01 -1.797479131628E+00 -5.344739094926E-02 4.289543638234E+00 3.497001119350E-01 -3.140270356105E+00 4.786919189406E+00 -2.977668752554E-01 -3.754748734729E+02 -6.633073186180E+02 -6.062244052105E+00 -1.885433813999E+00 -4.193243849478E+00 -1.888399624652E+00 -6.150821232837E+01 -3.033677051512E+00 -6.626012126646E-01 2.683365575770E+01 6.505786055945E+01 4.285771948197E-01 -2.181375996344E+01 2.853940829533E+03
 -3.034774221620E-01 1.929023450367E-01 4.271931351346E+00 -1.474595038535E+01 7.559250365829E+00 -8.481056362793E+01 -6.085937644271E-01 -2.070522497120E-01 -1.693652327138E+00 -2.272080230054E-01 7.477213251688E-01 4.266848454079E+00 1.262953266793E+00 7.913713565649E-01 -3.106475328315E+00 1.870037938992E+00 -4.276352894262E-01 8.209322065708E+00 2.301202509237E-01 -5.347165014233E-01 2.396994057519E-01 1.134088526801E-01 -1.006851507916E+00 9.386068289854E+00 3.132420024605E-02 3.680081504687E-01 1.439682111115E+00 -3.410457310102E-01 -1.104434764772E-01 1.686890810377E+00 3.592767544324E-01 3.260602699836E-01 4.794735967917E+00 -1.781451381754E-01 8.708831219026E-01 4.562124997695E+00 -1.698473424303E+00 -8.548041779898E-01 -9.489103025090E+00 -1.145183343112E+01 -6.555856671735E+00 -8.114233570059E+01 3.706399513089E-01 -1.633687124616E+00 1.999959012229E+00 -4.773381753957E-01 1.712677357929E+00 7.746036406753E+00 -4.774249011083E-01 -9.183299623539E-02 1.042250245048E+01 3.146524604857E+01 -2.319010296404E+00 1.927888672540E+02