#BIOSYM hessian 1
@Type: Hessian Update
@Units
 distance: 	A
 energy: 	Kcal/Mol
#header
@natom 66

#label
C1      C2      C3      C4      C5      C6      C7      C8      C9      C10     C11     C12     C13     C14     C15     C16     C17     C18     C19     C20     C21     C22     C23     H24     C25     C26     C27     C28     C29     C30     C31     C32     C33     C34     C35     C36     C37     C38     C39     C40     C41     C42     C43     C44     C45     C46     C47     C48     C49     H50     H51     H52     H53     H54     H55     H56     H57     H58     H59     H60     H61     H62     H63     H64     H65     H66

#element
C  C  C  C  C  C  C  C  C  C  C  C  C  C  C  C  C  C  C  C  C  C  C  H  C  C  C  C  C  C  C  C  C  C  C  C  C  C  C  C  C  C  C  C  C  C  C  C  C  H  H  H  H  H  H  H  H  H  H  H  H  H  H  H  H  H 

#matrix
198
 7.954432482466E+02
 -3.015070847852E+00 4.866425684137E+02
 0.000000000000E+00 0.000000000000E+00 0.000000000000E+00
 3.266489358084E+01 2.069921870100E+02 0.000000000000E+00 4.656754788385E+02
 5.543685171047E+01 -1.187469176969E+02 0.000000000000E+00 4.185947269421E+00 4.614163554142E+02
 0.000000000000E+00 0.000000000000E+00 0.000000000000E+00 0.000000000000E+00 0.000000000000E+00 0.000000000000E+00
 6.608257965225E+00 -2.553215059204E-02 0.000000000000E+00 1.636725801084E+02 1.468853077241E+02 0.000000000000E+00 6.094732008185E+02
 -1.122639468958E+01 4.230715906324E-02 0.000000000000E+00 1.380965527913E+02 1.333395514377E+01 0.000000000000E+00 -1.308318279439E+02 4.678490531500E+02
 0.000000000000E+00 0.000000000000E+00 0.000000000000E+00 0.000000000000E+00 0.000000000000E+00 0.000000000000E+00 0.000000000000E+00 0.000000000000E+00 0.000000000000E+00
 6.318497055561E+00 -2.448371522111E-02 0.000000000000E+00 4.656107968562E+01 2.111511417636E+02 0.000000000000E+00 -3.330072685018E+00 5.666920133217E+00 0.000000000000E+00 6.312226992323E+02
 1.108974843732E+01 -4.232269292324E-02 0.000000000000E+00 5.597962826606E+01 -1.212473244917E+02 0.000000000000E+00 -5.842000651238E+00 9.937352279161E+00 0.000000000000E+00 1.399827173158E+02 4.688799288737E+02
 0.000000000000E+00 0.000000000000E+00 0.000000000000E+00 0.000000000000E+00 0.000000000000E+00 0.000000000000E+00 0.000000000000E+00 0.000000000000E+00 0.000000000000E+00 0.000000000000E+00 0.000000000000E+00 0.000000000000E+00
 -5.007999690436E-04 -4.818649942282E-04 0.000000000000E+00 -8.552214444840E-04 4.975932891237E-04 0.000000000000E+00 8.037899664395E+00 2.840130259612E-01 0.000000000000E+00 6.700082740393E+00 5.750675378526E-02 0.000000000000E+00 5.148530761353E+02
 8.141764519610E-04 4.572683064754E-04 0.000000000000E+00 1.738148279713E-03 2.401671718213E-03 0.000000000000E+00 1.407463306751E+01 5.056495272031E-01 0.000000000000E+00 -1.200068626117E+01 -1.029487731626E-01 0.000000000000E+00 -1.751038690459E+01 4.269831527465E+02
 0.000000000000E+00 0.000000000000E+00 0.000000000000E+00 0.000000000000E+00 0.000000000000E+00 0.000000000000E+00 0.000000000000E+00 0.000000000000E+00 0.000000000000E+00 0.000000000000E+00 0.000000000000E+00 0.000000000000E+00 0.000000000000E+00 0.000000000000E+00 0.000000000000E+00
 -3.951104961749E+02 -4.199372913853E+02 0.000000000000E+00 -1.955929391260E+02 7.511942149135E+01 0.000000000000E+00 -3.282017491585E+00 5.576558270281E+00 0.000000000000E+00 -3.138045008423E+00 -5.508221691430E+00 0.000000000000E+00 6.677073346877E-04 -8.030942117867E-04 0.000000000000E+00 5.612316104235E+02
 -6.903815956743E+02 2.459324121553E+02 0.000000000000E+00 7.520746585208E+01 -1.073831807355E+02 0.000000000000E+00 -5.735685347941E+00 9.743496573616E+00 0.000000000000E+00 -5.484220821461E+00 -9.625165214755E+00 0.000000000000E+00 1.927729999793E-04 -4.764633349557E-04 0.000000000000E+00 1.322070812967E+02 7.208542062369E+02
 0.000000000000E+00 0.000000000000E+00 0.000000000000E+00 0.000000000000E+00 0.000000000000E+00 0.000000000000E+00 0.000000000000E+00 0.000000000000E+00 0.000000000000E+00 0.000000000000E+00 0.000000000000E+00 0.000000000000E+00 0.000000000000E+00 0.000000000000E+00 0.000000000000E+00 0.000000000000E+00 0.000000000000E+00 0.000000000000E+00
 -6.434216867751E+01 -6.582461584306E-01 0.000000000000E+00 -2.364628760935E+02 -4.016912591450E+02 0.000000000000E+00 -2.090426979859E+02 -8.059582028308E+01 0.000000000000E+00 -2.061427926482E+02 7.701344901764E+01 0.000000000000E+00 -3.317706326161E-06 -2.948982860514E-03 0.000000000000E+00 3.274114223390E+01 5.539282953010E+01 0.000000000000E+00 4.661062729445E+02
 -5.702017976933E-01 -2.386339511840E+02 0.000000000000E+00 -4.011938209589E+02 2.270830410329E+02 0.000000000000E+00 -6.830195841482E+01 -1.129281453204E+02 0.000000000000E+00 6.525249304641E+01 -1.091034424186E+02 0.000000000000E+00 9.894401422018E-04 -3.044447077286E-04 0.000000000000E+00 2.069481648296E+02 -1.188231663499E+02 0.000000000000E+00 3.937228176399E+00 4.609855613082E+02
 0.000000000000E+00 0.000000000000E+00 0.000000000000E+00 0.000000000000E+00 0.000000000000E+00 0.000000000000E+00 0.000000000000E+00 0.000000000000E+00 0.000000000000E+00 0.000000000000E+00 0.000000000000E+00 0.000000000000E+00 0.000000000000E+00 0.000000000000E+00 0.000000000000E+00 0.000000000000E+00 0.000000000000E+00 0.000000000000E+00 0.000000000000E+00 0.000000000000E+00 0.000000000000E+00
 -1.276325239608E+01 4.889438483244E-02 0.000000000000E+00 -7.176032001563E+01 -5.723077311138E-01 0.000000000000E+00 6.724357315411E+00 -1.143945958672E+01 0.000000000000E+00 -4.368399389024E+02 -4.760532883872E+02 0.000000000000E+00 -3.399843679859E+00 6.089499383431E+00 0.000000000000E+00 6.339282418673E+00 1.107774800233E+01 0.000000000000E+00 3.637579304174E+01 6.186010625167E+01 0.000000000000E+00 6.306942107496E+02
 7.289525480829E-02 4.217290503531E-05 0.000000000000E+00 -1.233326370235E+01 -2.434859150512E+02 0.000000000000E+00 -3.707278394751E-02 6.097934300601E-02 0.000000000000E+00 -4.766635343226E+02 1.132113751506E+02 0.000000000000E+00 -5.773688483743E+00 1.034142477844E+01 0.000000000000E+00 -3.648415020831E-02 -6.310805602777E-02 0.000000000000E+00 2.170316197492E+02 -1.110620378478E+02 0.000000000000E+00 1.402878402835E+02 4.694084173564E+02
 0.000000000000E+00 0.000000000000E+00 0.000000000000E+00 0.000000000000E+00 0.000000000000E+00 0.000000000000E+00 0.000000000000E+00 0.000000000000E+00 0.000000000000E+00 0.000000000000E+00 0.000000000000E+00 0.000000000000E+00 0.000000000000E+00 0.000000000000E+00 0.000000000000E+00 0.000000000000E+00 0.000000000000E+00 0.000000000000E+00 0.000000000000E+00 0.000000000000E+00 0.000000000000E+00 0.000000000000E+00 0.000000000000E+00 0.000000000000E+00
 -4.476385106227E-04 4.855206373788E-04 0.000000000000E+00 6.714518123503E+00 -1.185464202122E+01 0.000000000000E+00 -7.608548184313E+01 1.823020199336E+01 0.000000000000E+00 3.714283922353E-04 -1.361380750193E-03 0.000000000000E+00 -2.514324778190E+02 9.099475625556E+01 0.000000000000E+00 -1.966539770026E-04 6.304266389306E-04 0.000000000000E+00 6.909162081393E+00 -1.174226427974E+01 0.000000000000E+00 9.932761143272E-04 -1.002356799378E-03 0.000000000000E+00 4.610883446578E+02
 -1.742235681489E-03 2.345974426291E-04 0.000000000000E+00 2.378525085556E-01 -4.263054801817E-01 0.000000000000E+00 5.030542382691E+00 -2.505326771590E+02 0.000000000000E+00 -1.449681789217E-03 -1.024119777131E-03 0.000000000000E+00 8.923406655240E+01 -1.461787477574E+02 0.000000000000E+00 6.679505089794E-04 1.626119088346E-03 0.000000000000E+00 2.502651213343E-01 -4.191390548544E-01 0.000000000000E+00 1.611754645269E-03 7.434013601334E-04 0.000000000000E+00 -4.699834481725E+01 4.762517421727E+02
 0.000000000000E+00 0.000000000000E+00 0.000000000000E+00 0.000000000000E+00 0.000000000000E+00 0.000000000000E+00 0.000000000000E+00 0.000000000000E+00 0.000000000000E+00 0.000000000000E+00 0.000000000000E+00 0.000000000000E+00 0.000000000000E+00 0.000000000000E+00 0.000000000000E+00 0.000000000000E+00 0.000000000000E+00 0.000000000000E+00 0.000000000000E+00 0.000000000000E+00 0.000000000000E+00 0.000000000000E+00 0.000000000000E+00 0.000000000000E+00 0.000000000000E+00 0.000000000000E+00 0.000000000000E+00
 -3.383321582084E-04 2.565103954654E-04 0.000000000000E+00 -1.314890001809E+01 7.195686941506E-02 0.000000000000E+00 1.156443508012E-03 -2.115763074903E-03 0.000000000000E+00 -7.324699374273E+01 -9.861068412118E+00 0.000000000000E+00 -2.147573985828E+02 -7.256774343013E+01 0.000000000000E+00 -5.297843657522E-05 4.212594482582E-04 0.000000000000E+00 6.512133532160E+00 1.142325988220E+01 0.000000000000E+00 4.516343262471E+01 5.850322312598E+01 0.000000000000E+00 -3.993152853612E+00 -6.981753708999E+00 0.000000000000E+00 4.845103809419E+02
 -4.475151257209E-05 -9.112492406998E-04 0.000000000000E+00 -1.154705982897E-01 1.484327815851E-03 0.000000000000E+00 -5.431970855598E-03 -5.733922849759E-03 0.000000000000E+00 1.900261866992E+00 -2.469854529568E+02 0.000000000000E+00 -7.422238939570E+01 -1.256303862856E+02 0.000000000000E+00 8.115407450294E-04 -4.168686758936E-04 0.000000000000E+00 5.644983355208E-02 1.007426354178E-01 0.000000000000E+00 2.129455456923E+02 -1.251384015291E+02 0.000000000000E+00 7.151614109718E+00 1.250619531321E+01 0.000000000000E+00 6.402986438856E-01 4.708954155137E+02
 0.000000000000E+00 0.000000000000E+00 0.000000000000E+00 0.000000000000E+00 0.000000000000E+00 0.000000000000E+00 0.000000000000E+00 0.000000000000E+00 0.000000000000E+00 0.000000000000E+00 0.000000000000E+00 0.000000000000E+00 0.000000000000E+00 0.000000000000E+00 0.000000000000E+00 0.000000000000E+00 0.000000000000E+00 0.000000000000E+00 0.000000000000E+00 0.000000000000E+00 0.000000000000E+00 0.000000000000E+00 0.000000000000E+00 0.000000000000E+00 0.000000000000E+00 0.000000000000E+00 0.000000000000E+00 0.000000000000E+00 0.000000000000E+00 0.000000000000E+00
 -1.276325239607E+01 4.889438483513E-02 0.000000000000E+00 -7.176032001562E+01 -5.723077311150E-01 0.000000000000E+00 6.724357315409E+00 -1.143945958672E+01 0.000000000000E+00 -4.368399389024E+02 -4.760532883872E+02 0.000000000000E+00 -3.399843679855E+00 6.089499383431E+00 0.000000000000E+00 6.339282418669E+00 1.107774800233E+01 0.000000000000E+00 3.637579304174E+01 6.186010625167E+01 0.000000000000E+00 6.306942107496E+02 1.402878402835E+02 0.000000000000E+00 9.932761108598E-04 1.611754642820E-03 0.000000000000E+00 4.516343262471E+01 2.129455456923E+02 0.000000000000E+00 6.306942107497E+02
 -7.289525481194E-02 -4.217290195952E-05 0.000000000000E+00 1.233326370235E+01 2.434859150512E+02 0.000000000000E+00 3.707278394716E-02 -6.097934300294E-02 0.000000000000E+00 4.766635343226E+02 -1.132113751506E+02 0.000000000000E+00 5.773688483740E+00 -1.034142477844E+01 0.000000000000E+00 3.648415020746E-02 6.310805603243E-02 0.000000000000E+00 -2.170316197492E+02 1.110620378478E+02 0.000000000000E+00 -1.402878402835E+02 -4.694084173563E+02 0.000000000000E+00 1.002356803436E-03 -7.434013652544E-04 0.000000000000E+00 -5.850322312598E+01 1.251384015291E+02 0.000000000000E+00 -1.402878402835E+02 4.694084173563E+02
 0.000000000000E+00 0.000000000000E+00 0.000000000000E+00 0.000000000000E+00 0.000000000000E+00 0.000000000000E+00 0.000000000000E+00 0.000000000000E+00 0.000000000000E+00 0.000000000000E+00 0.000000000000E+00 0.000000000000E+00 0.000000000000E+00 0.000000000000E+00 0.000000000000E+00 0.000000000000E+00 0.000000000000E+00 0.000000000000E+00 0.000000000000E+00 0.000000000000E+00 0.000000000000E+00 0.000000000000E+00 0.000000000000E+00 0.000000000000E+00 0.000000000000E+00 0.000000000000E+00 0.000000000000E+00 0.000000000000E+00 0.000000000000E+00 0.000000000000E+00 0.000000000000E+00 0.000000000000E+00 0.000000000000E+00
 -4.546975109148E-04 -1.550734764404E-04 0.000000000000E+00 -1.077669845572E-03 -2.328705360977E-03 0.000000000000E+00 -1.620793961760E+01 -5.799118489533E-01 0.000000000000E+00 7.042857794832E+00 6.040287595671E-02 0.000000000000E+00 -2.422620981782E+02 -3.610230638142E+02 0.000000000000E+00 3.616463274971E-04 3.162428544016E-04 0.000000000000E+00 2.555552924025E-03 -2.310632168790E-04 0.000000000000E+00 -3.573739322456E+00 -6.069092327591E+00 0.000000000000E+00 4.691246838099E+01 8.197747577508E+01 0.000000000000E+00 1.702242085972E+02 1.459103007084E+02 0.000000000000E+00 -3.573739322458E+00 6.069092327589E+00 0.000000000000E+00 4.337861937042E+02
 -8.407937182508E-04 -6.459414768981E-04 0.000000000000E+00 -1.609717634318E-03 -7.699074305110E-04 0.000000000000E+00 -7.629123131293E-02 -6.862268115586E-03 0.000000000000E+00 1.180278499122E+01 1.012766962443E-01 0.000000000000E+00 4.546310366020E+02 -2.286560162627E+02 0.000000000000E+00 9.797986162715E-04 4.051779812155E-04 0.000000000000E+00 1.471618211595E-03 1.009102650244E-03 0.000000000000E+00 -5.989100687364E+00 -1.017087328968E+01 0.000000000000E+00 -2.632442912555E+02 1.503683423960E+02 0.000000000000E+00 -1.497014911083E+02 -1.463281603454E+00 0.000000000000E+00 -5.989100687360E+00 1.017087328967E+01 0.000000000000E+00 -2.929359948933E+01 5.080500351775E+02
 0.000000000000E+00 0.000000000000E+00 0.000000000000E+00 0.000000000000E+00 0.000000000000E+00 0.000000000000E+00 0.000000000000E+00 0.000000000000E+00 0.000000000000E+00 0.000000000000E+00 0.000000000000E+00 0.000000000000E+00 0.000000000000E+00 0.000000000000E+00 0.000000000000E+00 0.000000000000E+00 0.000000000000E+00 0.000000000000E+00 0.000000000000E+00 0.000000000000E+00 0.000000000000E+00 0.000000000000E+00 0.000000000000E+00 0.000000000000E+00 0.000000000000E+00 0.000000000000E+00 0.000000000000E+00 0.000000000000E+00 0.000000000000E+00 0.000000000000E+00 0.000000000000E+00 0.000000000000E+00 0.000000000000E+00 0.000000000000E+00 0.000000000000E+00 0.000000000000E+00
 -3.951104961749E+02 -4.199372913853E+02 0.000000000000E+00 -1.955929391260E+02 7.511942149135E+01 0.000000000000E+00 -3.282017491587E+00 5.576558270280E+00 0.000000000000E+00 -3.138045008424E+00 -5.508221691429E+00 0.000000000000E+00 6.677073342756E-04 -8.030942114349E-04 0.000000000000E+00 5.612316104235E+02 1.322070812967E+02 0.000000000000E+00 3.274114223390E+01 2.069481648296E+02 0.000000000000E+00 6.339282418673E+00 -3.648415020755E-02 0.000000000000E+00 -1.966539754516E-04 6.679505139084E-04 0.000000000000E+00 -5.297843745374E-05 8.115407471013E-04 0.000000000000E+00 6.339282418669E+00 3.648415020677E-02 0.000000000000E+00 3.616463273066E-04 9.797986157778E-04 0.000000000000E+00 5.612316104235E+02
 6.903815956743E+02 -2.459324121553E+02 0.000000000000E+00 -7.520746585208E+01 1.073831807355E+02 0.000000000000E+00 5.735685347942E+00 -9.743496573617E+00 0.000000000000E+00 5.484220821461E+00 9.625165214757E+00 0.000000000000E+00 -1.927730124729E-04 4.764633438517E-04 0.000000000000E+00 -1.322070812967E+02 -7.208542062369E+02 0.000000000000E+00 -5.539282953009E+01 1.188231663499E+02 0.000000000000E+00 -1.107774800233E+01 6.310805602878E-02 0.000000000000E+00 -6.304266258695E-04 -1.626119095356E-03 0.000000000000E+00 -4.212594479316E-04 4.168686757187E-04 0.000000000000E+00 -1.107774800233E+01 -6.310805603352E-02 0.000000000000E+00 -3.162428558321E-04 -4.051779964224E-04 0.000000000000E+00 -1.322070812967E+02 7.208542062369E+02
 0.000000000000E+00 0.000000000000E+00 0.000000000000E+00 0.000000000000E+00 0.000000000000E+00 0.000000000000E+00 0.000000000000E+00 0.000000000000E+00 0.000000000000E+00 0.000000000000E+00 0.000000000000E+00 0.000000000000E+00 0.000000000000E+00 0.000000000000E+00 0.000000000000E+00 0.000000000000E+00 0.000000000000E+00 0.000000000000E+00 0.000000000000E+00 0.000000000000E+00 0.000000000000E+00 0.000000000000E+00 0.000000000000E+00 0.000000000000E+00 0.000000000000E+00 0.000000000000E+00 0.000000000000E+00 0.000000000000E+00 0.000000000000E+00 0.000000000000E+00 0.000000000000E+00 0.000000000000E+00 0.000000000000E+00 0.000000000000E+00 0.000000000000E+00 0.000000000000E+00 0.000000000000E+00 0.000000000000E+00 0.000000000000E+00
 6.418214011485E+00 -2.387299921153E-02 0.000000000000E+00 -2.014314129465E+02 -8.499019774946E+01 0.000000000000E+00 -1.914329137863E+02 -3.397532511925E+02 0.000000000000E+00 -3.242660454080E+00 -5.684999194490E+00 0.000000000000E+00 -4.264912327696E+00 -7.475221869718E+00 0.000000000000E+00 -3.188432381962E+00 -5.570272880474E+00 0.000000000000E+00 1.743193767970E+02 1.319496218572E+02 0.000000000000E+00 6.544683949965E+00 -3.427326817101E-02 0.000000000000E+00 2.225492287921E+01 2.144523917065E+02 0.000000000000E+00 1.254082818189E-03 7.681708281912E-03 0.000000000000E+00 6.544683949962E+00 3.427326816856E-02 0.000000000000E+00 8.606188201951E+00 4.408851416081E-02 0.000000000000E+00 -3.188432381961E+00 5.570272880474E+00 0.000000000000E+00 3.899514034442E+02
 1.133611661744E+01 -4.326507056186E-02 0.000000000000E+00 7.269633588120E+01 1.205394303598E+02 0.000000000000E+00 5.932351888066E+02 -3.472282131979E+02 0.000000000000E+00 -5.717387608280E+00 -1.002799711247E+01 0.000000000000E+00 6.819018789463E+00 1.193616502180E+01 0.000000000000E+00 -5.630589658513E+00 -9.838997506240E+00 0.000000000000E+00 -1.407383767899E+02 -2.687158455241E+00 0.000000000000E+00 1.154319405263E+01 -6.259564419146E-02 0.000000000000E+00 -7.500706113202E+01 1.296229160777E+02 0.000000000000E+00 2.059390991230E-03 -1.837263330372E-03 0.000000000000E+00 1.154319405262E+01 6.259564418959E-02 0.000000000000E+00 -1.374653152737E+01 -6.263901033966E-02 0.000000000000E+00 -5.630589658515E+00 9.838997506241E+00 0.000000000000E+00 4.090859136799E+00 6.873708505243E+02
 0.000000000000E+00 0.000000000000E+00 0.000000000000E+00 0.000000000000E+00 0.000000000000E+00 0.000000000000E+00 0.000000000000E+00 0.000000000000E+00 0.000000000000E+00 0.000000000000E+00 0.000000000000E+00 0.000000000000E+00 0.000000000000E+00 0.000000000000E+00 0.000000000000E+00 0.000000000000E+00 0.000000000000E+00 0.000000000000E+00 0.000000000000E+00 0.000000000000E+00 0.000000000000E+00 0.000000000000E+00 0.000000000000E+00 0.000000000000E+00 0.000000000000E+00 0.000000000000E+00 0.000000000000E+00 0.000000000000E+00 0.000000000000E+00 0.000000000000E+00 0.000000000000E+00 0.000000000000E+00 0.000000000000E+00 0.000000000000E+00 0.000000000000E+00 0.000000000000E+00 0.000000000000E+00 0.000000000000E+00 0.000000000000E+00 0.000000000000E+00 0.000000000000E+00 0.000000000000E+00
 2.079220337735E-04 6.609097961691E-04 0.000000000000E+00 6.674450480557E+00 -3.726390030781E-02 0.000000000000E+00 4.126002998429E-03 6.023604387843E-03 0.000000000000E+00 3.497782182070E+01 2.188262108319E+02 0.000000000000E+00 1.716571740377E+02 1.450829777256E+02 0.000000000000E+00 -6.763256890373E-04 1.503891335162E-04 0.000000000000E+00 -3.304953755973E+00 -5.798875622618E+00 0.000000000000E+00 -2.069979685047E+02 7.912142315017E+01 0.000000000000E+00 -4.196903070284E+00 -7.339805991425E+00 0.000000000000E+00 -2.428097053626E+02 -4.081275416824E+02 0.000000000000E+00 -2.069979685047E+02 -7.912142315017E+01 0.000000000000E+00 -2.114741313859E+02 7.611798459564E+01 0.000000000000E+00 -6.763256904289E-04 -1.503891334851E-04 0.000000000000E+00 -7.279595924365E-03 5.614212213494E-04 0.000000000000E+00 4.748536717623E+02
 -2.706284897050E-04 6.777691409363E-04 0.000000000000E+00 -1.132954614835E+01 6.157431298041E-02 0.000000000000E+00 3.717494879288E-03 1.034656858752E-03 0.000000000000E+00 -6.438388826554E+01 1.149527907251E+02 0.000000000000E+00 -1.488741681255E+02 -3.031616300098E-02 0.000000000000E+00 -4.516510449394E-04 5.732557243884E-04 0.000000000000E+00 5.611448154914E+00 9.842461934307E+00 0.000000000000E+00 -6.736009287106E+01 1.132344781949E+02 0.000000000000E+00 -7.033978867287E+00 -1.229947373157E+01 0.000000000000E+00 4.192781489710E+02 -2.348931928652E+02 0.000000000000E+00 -6.736009287106E+01 -1.132344781949E+02 0.000000000000E+00 7.446333863006E+01 -1.289136534825E+02 0.000000000000E+00 -4.516510467703E-04 -5.732557240152E-04 0.000000000000E+00 -2.754786564127E-03 2.702116573457E-03 0.000000000000E+00 -6.215602288194E+00 4.805521246932E+02
 0.000000000000E+00 0.000000000000E+00 0.000000000000E+00 0.000000000000E+00 0.000000000000E+00 0.000000000000E+00 0.000000000000E+00 0.000000000000E+00 0.000000000000E+00 0.000000000000E+00 0.000000000000E+00 0.000000000000E+00 0.000000000000E+00 0.000000000000E+00 0.000000000000E+00 0.000000000000E+00 0.000000000000E+00 0.000000000000E+00 0.000000000000E+00 0.000000000000E+00 0.000000000000E+00 0.000000000000E+00 0.000000000000E+00 0.000000000000E+00 0.000000000000E+00 0.000000000000E+00 0.000000000000E+00 0.000000000000E+00 0.000000000000E+00 0.000000000000E+00 0.000000000000E+00 0.000000000000E+00 0.000000000000E+00 0.000000000000E+00 0.000000000000E+00 0.000000000000E+00 0.000000000000E+00 0.000000000000E+00 0.000000000000E+00 0.000000000000E+00 0.000000000000E+00 0.000000000000E+00 0.000000000000E+00 0.000000000000E+00 0.000000000000E+00
 3.266489358083E+01 2.069921870100E+02 0.000000000000E+00 4.656754788385E+02 4.185947269421E+00 0.000000000000E+00 1.636725801084E+02 1.380965527913E+02 0.000000000000E+00 4.656107968562E+01 5.597962826606E+01 0.000000000000E+00 -8.552214485112E-04 1.738148283598E-03 0.000000000000E+00 -1.955929391260E+02 7.520746585208E+01 0.000000000000E+00 -2.364628760935E+02 -4.011938209589E+02 0.000000000000E+00 -7.176032001563E+01 -1.233326370235E+01 0.000000000000E+00 6.714518123508E+00 2.378525085512E-01 0.000000000000E+00 -1.314890001809E+01 -1.154705982941E-01 0.000000000000E+00 -7.176032001562E+01 1.233326370235E+01 0.000000000000E+00 -1.077669846909E-03 -1.609717639791E-03 0.000000000000E+00 -1.955929391260E+02 -7.520746585208E+01 0.000000000000E+00 -2.014314129465E+02 7.269633588119E+01 0.000000000000E+00 6.674450480561E+00 -1.132954614835E+01 0.000000000000E+00 4.656754788385E+02
 -5.543685171046E+01 1.187469176969E+02 0.000000000000E+00 -4.185947269425E+00 -4.614163554141E+02 0.000000000000E+00 -1.468853077241E+02 -1.333395514377E+01 0.000000000000E+00 -2.111511417636E+02 1.212473244917E+02 0.000000000000E+00 -4.975932954366E-04 -2.401671716215E-03 0.000000000000E+00 -7.511942149135E+01 1.073831807355E+02 0.000000000000E+00 4.016912591450E+02 -2.270830410329E+02 0.000000000000E+00 5.723077311137E-01 2.434859150512E+02 0.000000000000E+00 1.185464202122E+01 4.263054801762E-01 0.000000000000E+00 -7.195686941438E-02 -1.484327812625E-03 0.000000000000E+00 5.723077311150E-01 -2.434859150512E+02 0.000000000000E+00 2.328705362415E-03 7.699074240737E-04 0.000000000000E+00 -7.511942149135E+01 -1.073831807355E+02 0.000000000000E+00 8.499019774945E+01 -1.205394303598E+02 0.000000000000E+00 3.726390030468E-02 -6.157431298144E-02 0.000000000000E+00 -4.185947269425E+00 4.614163554141E+02
 0.000000000000E+00 0.000000000000E+00 0.000000000000E+00 0.000000000000E+00 0.000000000000E+00 0.000000000000E+00 0.000000000000E+00 0.000000000000E+00 0.000000000000E+00 0.000000000000E+00 0.000000000000E+00 0.000000000000E+00 0.000000000000E+00 0.000000000000E+00 0.000000000000E+00 0.000000000000E+00 0.000000000000E+00 0.000000000000E+00 0.000000000000E+00 0.000000000000E+00 0.000000000000E+00 0.000000000000E+00 0.000000000000E+00 0.000000000000E+00 0.000000000000E+00 0.000000000000E+00 0.000000000000E+00 0.000000000000E+00 0.000000000000E+00 0.000000000000E+00 0.000000000000E+00 0.000000000000E+00 0.000000000000E+00 0.000000000000E+00 0.000000000000E+00 0.000000000000E+00 0.000000000000E+00 0.000000000000E+00 0.000000000000E+00 0.000000000000E+00 0.000000000000E+00 0.000000000000E+00 0.000000000000E+00 0.000000000000E+00 0.000000000000E+00 0.000000000000E+00 0.000000000000E+00 0.000000000000E+00
 1.732639609607E-03 -4.459276638572E-04 0.000000000000E+00 -3.563245376516E+00 6.296512386221E+00 0.000000000000E+00 3.368616342334E+01 2.078525619011E+02 0.000000000000E+00 1.069747066505E-03 1.567604120894E-03 0.000000000000E+00 4.843727039208E+01 8.109713092351E+01 0.000000000000E+00 -4.801351179548E-04 -1.723473755095E-03 0.000000000000E+00 -3.671316993454E+00 6.234117209092E+00 0.000000000000E+00 -1.892458529464E-03 -1.426260672578E-04 0.000000000000E+00 -1.898424117813E+02 -3.889469349095E+02 0.000000000000E+00 8.042952501765E+00 -1.440648990079E+01 0.000000000000E+00 -1.892458525670E-03 1.426260696212E-04 0.000000000000E+00 -9.445081074984E+01 1.399341187761E+00 0.000000000000E+00 -4.801351230276E-04 1.723473754617E-03 0.000000000000E+00 -1.968486805597E+02 -7.475320766992E+01 0.000000000000E+00 8.454909982564E+00 1.416864613836E+01 0.000000000000E+00 -3.563245376514E+00 -6.296512386220E+00 0.000000000000E+00 4.317591322464E+02
 4.834515159323E-04 3.031744844479E-04 0.000000000000E+00 5.696017014848E+00 -1.005326840306E+01 0.000000000000E+00 -6.840723132668E+01 1.410541566219E+02 0.000000000000E+00 1.046507317307E-03 -6.669304242680E-04 0.000000000000E+00 -2.623639464038E+02 1.518931444072E+02 0.000000000000E+00 -5.042825926205E-04 -2.670940572316E-04 0.000000000000E+00 5.858377320684E+00 -9.959529636777E+00 0.000000000000E+00 5.432502474426E-05 -1.239767130928E-03 0.000000000000E+00 4.228133922712E+02 -2.788276316339E+02 0.000000000000E+00 3.270504207861E-02 -5.961815952720E-02 0.000000000000E+00 5.432502295612E-05 1.239767136969E-03 0.000000000000E+00 -3.613485153654E-01 -3.031604148264E+02 0.000000000000E+00 -5.042825937440E-04 2.670940720109E-04 0.000000000000E+00 -8.795286728058E+01 -1.297694784424E+02 0.000000000000E+00 3.527831962444E-02 5.813247703131E-02 0.000000000000E+00 5.696017014855E+00 1.005326840307E+01 0.000000000000E+00 3.006511613642E+01 5.055809545840E+02
 0.000000000000E+00 0.000000000000E+00 0.000000000000E+00 0.000000000000E+00 0.000000000000E+00 0.000000000000E+00 0.000000000000E+00 0.000000000000E+00 0.000000000000E+00 0.000000000000E+00 0.000000000000E+00 0.000000000000E+00 0.000000000000E+00 0.000000000000E+00 0.000000000000E+00 0.000000000000E+00 0.000000000000E+00 0.000000000000E+00 0.000000000000E+00 0.000000000000E+00 0.000000000000E+00 0.000000000000E+00 0.000000000000E+00 0.000000000000E+00 0.000000000000E+00 0.000000000000E+00 0.000000000000E+00 0.000000000000E+00 0.000000000000E+00 0.000000000000E+00 0.000000000000E+00 0.000000000000E+00 0.000000000000E+00 0.000000000000E+00 0.000000000000E+00 0.000000000000E+00 0.000000000000E+00 0.000000000000E+00 0.000000000000E+00 0.000000000000E+00 0.000000000000E+00 0.000000000000E+00 0.000000000000E+00 0.000000000000E+00 0.000000000000E+00 0.000000000000E+00 0.000000000000E+00 0.000000000000E+00 0.000000000000E+00 0.000000000000E+00 0.000000000000E+00
 6.418214011487E+00 -2.387299921521E-02 0.000000000000E+00 -2.014314129465E+02 -8.499019774946E+01 0.000000000000E+00 -1.914329137863E+02 -3.397532511925E+02 0.000000000000E+00 -3.242660454083E+00 -5.684999194487E+00 0.000000000000E+00 -4.264912327693E+00 -7.475221869714E+00 0.000000000000E+00 -3.188432381959E+00 -5.570272880477E+00 0.000000000000E+00 1.743193767970E+02 1.319496218572E+02 0.000000000000E+00 6.544683949963E+00 -3.427326816646E-02 0.000000000000E+00 2.225492287920E+01 2.144523917065E+02 0.000000000000E+00 1.254082816486E-03 7.681708279638E-03 0.000000000000E+00 6.544683949960E+00 3.427326816402E-02 0.000000000000E+00 8.606188201946E+00 4.408851416145E-02 0.000000000000E+00 -3.188432381958E+00 5.570272880477E+00 0.000000000000E+00 3.899514034442E+02 4.090859136793E+00 0.000000000000E+00 -7.279595921547E-03 -2.754786564489E-03 0.000000000000E+00 -2.014314129465E+02 8.499019774946E+01 0.000000000000E+00 -1.968486805597E+02 -8.795286728058E+01 0.000000000000E+00 3.899514034442E+02
 -1.133611661744E+01 4.326507056504E-02 0.000000000000E+00 -7.269633588120E+01 -1.205394303598E+02 0.000000000000E+00 -5.932351888066E+02 3.472282131979E+02 0.000000000000E+00 5.717387608280E+00 1.002799711248E+01 0.000000000000E+00 -6.819018789461E+00 -1.193616502181E+01 0.000000000000E+00 5.630589658511E+00 9.838997506242E+00 0.000000000000E+00 1.407383767899E+02 2.687158455241E+00 0.000000000000E+00 -1.154319405263E+01 6.259564419373E-02 0.000000000000E+00 7.500706113202E+01 -1.296229160777E+02 0.000000000000E+00 -2.059390989318E-03 1.837263327255E-03 0.000000000000E+00 -1.154319405263E+01 -6.259564419186E-02 0.000000000000E+00 1.374653152738E+01 6.263901034235E-02 0.000000000000E+00 5.630589658512E+00 -9.838997506243E+00 0.000000000000E+00 -4.090859136801E+00 -6.873708505243E+02 0.000000000000E+00 -5.614212196079E-04 -2.702116570254E-03 0.000000000000E+00 -7.269633588119E+01 1.205394303598E+02 0.000000000000E+00 7.475320766992E+01 1.297694784424E+02 0.000000000000E+00 -4.090859136795E+00 6.873708505243E+02
 0.000000000000E+00 0.000000000000E+00 0.000000000000E+00 0.000000000000E+00 0.000000000000E+00 0.000000000000E+00 0.000000000000E+00 0.000000000000E+00 0.000000000000E+00 0.000000000000E+00 0.000000000000E+00 0.000000000000E+00 0.000000000000E+00 0.000000000000E+00 0.000000000000E+00 0.000000000000E+00 0.000000000000E+00 0.000000000000E+00 0.000000000000E+00 0.000000000000E+00 0.000000000000E+00 0.000000000000E+00 0.000000000000E+00 0.000000000000E+00 0.000000000000E+00 0.000000000000E+00 0.000000000000E+00 0.000000000000E+00 0.000000000000E+00 0.000000000000E+00 0.000000000000E+00 0.000000000000E+00 0.000000000000E+00 0.000000000000E+00 0.000000000000E+00 0.000000000000E+00 0.000000000000E+00 0.000000000000E+00 0.000000000000E+00 0.000000000000E+00 0.000000000000E+00 0.000000000000E+00 0.000000000000E+00 0.000000000000E+00 0.000000000000E+00 0.000000000000E+00 0.000000000000E+00 0.000000000000E+00 0.000000000000E+00 0.000000000000E+00 0.000000000000E+00 0.000000000000E+00 0.000000000000E+00 0.000000000000E+00