#BIOSYM hessian 1
@Type: Hessian Update
@Units
 distance: 	A
 energy: 	Kcal/Mol
#header
@natom 67

#label
C1      C2      C3      C4      C5      C6      C7      C8      C9      C10     C11     C12     C13     C14     C15     C16     C17     C18     C19     C20     C21     C22     C23     H24     C25     C26     C27     C28     C29     C30     C31     C32     C33     C34     C35     C36     C37     C38     C39     C40     C41     C42     C43     C44     C45     C46     C47     C48     C49     H50     H51     H52     H53     H54     H55     H56     H57     H58     H59     H60     H61     H62     H63     H64     H65     H66     O67

#element
C  C  C  C  C  C  C  C  C  C  C  C  C  C  C  C  C  C  C  C  C  C  C  H  C  C  C  C  C  C  C  C  C  C  C  C  C  C  C  C  C  C  C  C  C  C  C  C  C  H  H  H  H  H  H  H  H  H  H  H  H  H  H  H  H  H  O 

#matrix
201
 2.779933674365E+03
 -1.570979759289E+01 2.806424401174E+03
 -4.492336183676E+01 -2.054038169888E+01 1.927995497384E+02
 3.801480487640E+01 6.698531143637E+01 -6.956917187316E-01 2.799474950314E+03
 2.839992343852E-01 -1.442806695901E+00 4.797629801769E-02 -1.710152489028E+01 2.761600653459E+03
 5.720840581703E-01 -9.586633911290E-01 9.007987366826E+00 -5.373810121573E+01 3.328369016427E-01 1.926416829291E+02
 -1.920719065611E+01 3.405959131231E+01 2.964807817131E-01 -5.463730965588E-02 1.941991539456E-01 4.059440575953E-01 2.793139877419E+03
 -3.243831814816E+01 5.852082108489E+01 2.406312549483E-01 3.709739918452E-01 -3.801754150285E-01 3.536861382290E-02 2.606817827369E+01 2.749559963817E+03
 6.634917176722E-01 -1.034028243355E+00 9.424757614287E+00 4.505162428732E-02 -3.342698343681E-01 4.009182060471E-01 -4.435657418479E+01 -2.658404100490E+01 1.874730598200E+02
 3.787339648730E+01 -6.726899321415E+01 -1.932401961047E-01 -1.927944180693E+01 3.488058986046E+01 4.344916034105E-01 3.944158720295E+01 6.846880962599E+01 -3.896997142293E-01 2.796107565729E+03
 3.980471411918E-02 -1.215117802525E-01 2.468439777752E-01 -3.234366856728E+01 5.853412968063E+01 -1.870248861493E-01 -5.780150558659E-01 -9.178077388214E-01 3.489827037246E-01 1.624896131315E+00 2.804420789571E+03
 -6.731695904090E-01 9.721870241984E-01 9.029770239043E+00 5.969566988834E-01 -9.090744604332E-01 9.699477845815E+00 2.177396049572E-01 -6.393687057946E-01 1.046420365827E+01 -5.039947414746E+01 -1.037078494071E+01 1.957136289925E+02
 6.839417570579E-02 -6.828353943470E-02 2.456589348356E-02 3.571354964911E-02 -6.533423622215E-02 -3.969185972362E-02 5.088181215679E+01 -8.292923890582E+01 -1.936602728906E-01 -2.142157848959E+01 3.719654119912E+01 2.725329755339E-01 2.599730958888E+03
 1.921128532224E-01 -2.800327611404E-01 1.004174487778E-01 -5.525629634157E-02 5.245477781111E-02 -7.413601980954E-02 -5.646757220193E-01 1.548481409418E-01 3.435265006755E-01 -3.527456659903E+01 6.042784928700E+01 3.486849302830E-02 -1.724342383851E+02 3.049879332995E+03
 3.268997494127E-01 -1.031054186766E-01 3.900392784298E-01 1.340402502405E-01 -5.858933360324E-02 6.065272521816E-01 -5.092610053315E-01 1.664576005562E+00 1.238392711880E+01 9.758523829744E-01 -6.544758155361E-01 1.066978391307E+01 -4.641520138578E+01 -1.643756626498E+01 1.514356066690E+02
 -1.215397059500E+03 4.417524238613E+02 1.704556887429E+01 -4.680486036219E+02 -1.063096120240E+01 7.997993621827E+00 -3.242158197097E-01 -3.753638958842E-01 2.267929658266E-01 -2.698345766022E-01 -9.458436609017E-01 -3.266270546504E-01 2.484132280790E-02 -2.122990538594E-01 7.627841808025E-02 2.821379341073E+03
 4.359276005269E+02 -7.302834908266E+02 -2.950993568163E+00 -9.741020202315E+00 -1.429190742760E+03 5.585340621067E+00 -5.222127780826E-01 -1.036889822135E-01 1.113977029855E-01 -3.658091172329E-01 -2.535233589720E-02 -2.295530545501E-02 5.232255077950E-02 -4.179080284929E-01 3.646460569923E-02 6.146845374855E+00 2.763425422136E+03
 1.789326222725E+01 -3.351524750374E+00 -8.250044462303E+01 7.831985265975E+00 8.430806023387E+00 -8.121346365134E+01 2.506491902841E-02 -1.865668444004E-02 4.571296106495E+00 -3.573607362079E-01 -1.778938598427E-02 -9.102808100454E+00 -1.847649430406E-02 6.769550957074E-02 5.226414814361E-02 -4.937753670393E+01 -1.485678366648E+01 1.924279984571E+02
 -1.201483679267E+03 -4.125655319834E+02 2.293489590446E+01 5.408309822213E-01 -7.292341970539E-01 -5.885135218444E-01 -1.236699624406E+03 4.415388126724E+02 1.503015346195E+01 -4.694348797233E+02 -4.095884478205E+00 7.101098745164E+00 -6.468417908093E-02 1.461874126616E-02 -5.221402558456E-01 -1.917844230355E+01 -3.165587731069E+01 7.758609836306E-01 2.792848404861E+03
 -4.107929276768E+02 -6.945993265064E+02 1.169380586931E+01 -6.446694545514E-01 1.116207199630E-02 5.018410725867E-01 4.496619120636E+02 -7.306352677166E+02 -1.805279976592E+00 -6.914367465055E+00 -1.460930634996E+03 7.282559551552E+00 -4.285577436413E-02 1.223339084286E-01 1.840974804373E-02 3.453401680627E+01 5.820451629588E+01 -7.664830572759E-01 -2.528506875715E+01 2.768465426110E+03
 2.190800832642E+01 1.142968403235E+01 -8.127384482345E+01 -6.910725271176E-02 -2.898470388064E-01 -8.920477037792E+00 1.611630918198E+01 -1.914100061784E+00 -8.240727469563E+01 7.251419713489E+00 8.352634845843E+00 -8.201506547048E+01 -2.650575776170E-01 -2.304973451812E-01 -1.047145545796E+01 3.467913788188E-01 4.063729080368E-01 8.475037297340E+00 -4.395542456361E+01 -1.707828967452E+01 1.915146139873E+02
 -1.180206856223E-01 2.306094396343E-01 -1.704960738763E-01 -1.224247064610E+03 -4.208566513931E+02 2.202817356089E+01 4.565066434480E-02 4.065803122374E-01 -1.385560765861E-01 -1.214343624117E+03 4.354995917997E+02 2.010441552285E+01 8.909945779765E-02 2.400372073428E-01 3.116434646996E-01 3.834396479183E+01 -7.270429899486E-01 -3.412372565001E-01 3.953065312188E+01 -2.680848825661E-01 -9.304074398443E-01 2.800240765974E+03
 -2.812201624400E-01 4.568991819438E-01 -1.161628340290E-01 -4.244530000851E+02 -7.077396671060E+02 8.209301292927E+00 2.027728409908E-01 4.925710781715E-01 -5.807407454350E-02 4.380263269469E+02 -7.305230512807E+02 -7.971007965244E+00 1.248027707486E-01 3.515283188542E-01 3.147475534396E-01 -6.685710073930E+01 8.069519294426E-03 9.629887291276E-01 6.751727020941E+01 -5.817739073631E-01 -1.431955471035E+00 2.202841574278E+00 2.801166136012E+03
 -6.275741071306E-01 6.592704651814E-01 -9.436825665155E+00 1.811277863984E+01 6.078718089288E+00 -8.370678917189E+01 -3.629156071706E-02 -3.479644034188E-01 4.190283710860E+00 2.181795572514E+01 -8.318724898179E+00 -8.382545610952E+01 -6.790153285628E-02 -2.925403316121E-01 3.939997870472E+00 4.709257903094E-01 1.502572638383E-01 8.902651649388E+00 -1.367790342949E+00 -3.222114191744E-01 8.941271919754E+00 -4.936064504351E+01 8.870028487718E+00 1.960906790477E+02
 -8.914690832161E-02 2.170952281433E-01 -1.966001040303E-01 1.537494260244E-01 -1.445657626454E-01 -3.722209153645E-01 -1.228896146454E+03 -4.440961272155E+02 2.388886015447E+01 3.178955841531E-01 3.596251678115E-01 -6.845419490748E-01 -5.667353202295E+02 -3.300272455662E+00 9.390601309881E+00 2.031825721963E-01 5.505710625349E-01 1.188644546280E-02 -2.164930535875E+01 -3.703176127153E+01 8.041022852404E-01 -1.298192971213E-01 -2.545881236226E-01 2.511228300399E-01 2.593548305136E+03
 -2.676027360820E-01 4.132333706088E-01 -2.194998936146E-01 8.378094745812E-02 -9.242779024176E-02 -1.270677546685E-01 -4.588498264742E+02 -7.700413824275E+02 1.386559728252E+01 1.285689283500E-01 5.788171332444E-01 6.988806701284E-02 -1.446882692576E+01 -1.818376041688E+03 1.334036412431E+01 2.876791340271E-01 6.429749701759E-01 -3.688669060989E-02 3.483495218892E+01 6.009550267495E+01 -9.267779371765E-01 -3.230193407841E-01 -4.565355702805E-01 5.563030247572E-01 1.852087812569E+02 3.028698024483E+03
 2.999100784896E-01 1.455348769481E-01 4.498736452579E+00 -6.126921873523E-02 1.903410456100E-01 -9.134433677358E-02 2.385004634217E+01 1.377494021938E+01 -7.812697338146E+01 -4.393610727929E-01 -3.262642791523E-01 -1.179922845559E+01 9.859065453569E+00 1.372924706989E+01 -6.975766716040E+01 1.683965383840E-01 -1.251554136277E-02 1.406796013209E-01 3.008765881789E-01 4.404373303770E-03 9.531392147897E+00 2.906315540594E-01 5.203130930127E-01 2.163012994960E-03 -4.640197802596E+01 -2.571595901064E+01 1.545681362899E+02
 -2.344939359722E-01 3.027612312903E-01 2.146077619488E-02 -4.591487713900E-02 2.314358074681E-01 1.887579410177E-01 2.483694965950E-01 1.277268251166E-01 -2.899020604195E-01 -1.229033640779E+03 -4.349344415401E+02 2.383489664106E+01 -1.259475767009E+03 4.616666917851E+02 1.956142790732E+01 8.651051609203E-02 -1.115813259772E-02 -1.968894586434E-02 3.948805485893E+01 -3.849962515023E-01 -4.026685853693E-01 -2.044572368838E+01 -3.472118717662E+01 1.105107310907E+00 5.131229152552E+01 -3.533258915233E-01 -9.815700382078E-01 2.847252475570E+03
 -4.017070421886E-01 5.043853363844E-01 -5.989200373828E-02 -3.793490824511E-01 7.899887926874E-01 2.426612683864E-01 2.215559593697E-01 3.950431196489E-01 -5.098439196836E-01 -4.335477886944E+02 -7.303577337318E+02 1.084592009500E+01 4.515426260708E+02 -7.821161492498E+02 -5.282499379778E+00 3.868417521400E-01 -2.458828549677E-01 -5.113860381934E-02 -6.849988639831E+01 1.002351858076E-01 1.306946631818E+00 3.437014708902E+01 5.861470681689E+01 -7.112464427008E-01 8.423258890731E+01 -8.100760116558E-01 -1.227936487091E+00 -3.926842008307E+01 2.884304359549E+03
 -1.942088248131E-01 2.189293990993E-01 3.736964053013E+00 -1.001468864642E-01 4.214599268874E-01 3.433646578660E+00 -9.979661622158E-01 -2.875999334112E-01 -1.146567476710E+01 2.219436238690E+01 9.981513515609E+00 -8.663994442098E+01 2.059133126561E+01 -5.596359123790E+00 -7.808942866604E+01 -3.009470339596E-02 2.657450692369E-02 8.266096696099E-02 3.402475373243E-01 5.113620256760E-02 9.553663487704E+00 6.635176565729E-01 4.629062978341E-01 1.038181366129E+01 -1.028421425173E+00 3.742597345485E-01 1.159350889606E+01 -4.992093782330E+01 -6.378239857757E+00 1.879609014861E+02
 1.398094968056E+00 -3.443986005784E-01 -3.454900979633E-02 3.162435444300E+00 -3.952046667047E+00 7.076226644973E-01 2.141197883364E+00 7.136331760070E-01 -5.890106836256E-01 1.005817135777E+00 2.409026211319E+00 6.826424303965E-01 6.841437065878E-02 1.597768376585E+00 2.812771010374E-01 2.818411386891E-01 5.247138866954E+00 -2.973165099132E-01 -2.101615202090E+00 -7.340875282019E-01 1.035134733773E-01 -3.767169018566E-01 -4.630582700176E-01 -9.197811689698E-01 -1.891652885126E+00 -2.340025975764E+00 4.043540112273E-01 -8.033565870261E-01 -6.647407865943E-01 -4.544805831631E-01 2.797013596582E+03
 -3.885196362728E-01 3.231536515971E-01 -6.190335869366E-02 -2.556244586438E-01 2.488033904462E+00 -4.848038453040E-01 -1.363988720546E+00 -1.023636608985E+00 1.518844493940E-01 -3.402507632049E-01 -8.136069263221E-01 -3.301129515187E-01 2.354383499523E-01 -1.249066913743E+00 2.382126267409E-01 -8.580589201885E-01 -3.473318019982E+00 -6.046008263862E-02 6.275037564738E-01 -8.389382409929E-02 -5.716445293510E-02 -4.438963573539E-01 -9.041796707061E-01 2.292104256168E-01 1.322436407788E+00 1.697258501195E+00 1.844370946850E-01 -4.788850783756E-03 3.983770968048E-01 6.393727341333E-02 2.011097048367E+01 2.769507828749E+03
 1.677750035380E-01 4.833297232596E-01 1.282754112363E+00 2.550038273776E-01 3.639611013351E-01 2.056390905250E+00 8.472386952545E-01 6.441795101171E-01 -5.061394717606E-01 4.878131252514E-01 7.787425332948E-01 -6.136228042160E-01 3.293366362710E-01 7.278617600295E-01 3.476486569263E+00 3.471052777050E-01 -8.061413576836E-01 4.699838710227E+00 -6.209346615462E-01 -6.968456858093E-01 -2.075177071164E-01 -2.166252856881E-01 8.884391902646E-01 -2.638750145787E+00 -6.095461279104E-01 -1.020843607797E+00 3.625747933871E+00 -6.461189155799E-01 -3.962495061613E-01 -2.338658521005E+00 6.478463807430E+01 3.939803946757E+01 2.156442686543E+02
 1.197393660145E+01 -1.093820431440E+01 2.127696346502E-01 1.631621804908E+01 -1.786652893644E+01 -1.099417835445E+00 -3.692580726441E-01 -1.117376281560E+01 3.066777042248E-01 -5.997566959243E+00 -4.221277189232E+00 -4.874304466828E-01 2.053434509990E-01 -3.584202756578E+00 3.974015075068E-01 -5.868819286917E+00 1.760234344599E+01 -1.192362040829E-01 -3.728743947962E+00 2.117571548573E+00 -1.148026480150E-01 5.813898378545E+00 6.698501558163E+00 -5.915467529308E-01 2.173192591432E+00 4.587995958608E+00 -1.588350902146E-01 1.681474527696E+00 9.514563210969E+00 1.756732796095E-01 -1.956367203469E+00 6.463278569277E+01 -2.697709408237E+00 2.740503935614E+03
 -1.930578135422E+00 4.767204336683E+00 -9.497901296249E-01 1.071395016190E+00 1.084011959164E+01 -1.463634366062E-01 1.329778175077E+00 1.732570916038E+00 -9.008543678233E-01 5.374839606686E+00 9.384566675522E+00 2.092062920490E+00 1.684962883826E+00 2.422227470711E-01 1.587281384454E-01 1.066114679191E+00 -3.867655756446E+00 1.283344312884E+00 -3.639379711385E+00 -4.333966845076E+00 4.388689906883E-01 -8.156632902170E+00 -1.541361982128E+01 -7.272263031133E-01 -1.344817765288E+00 -1.215967489018E+00 -3.986720206225E-01 -4.474973910705E+00 -6.052394646663E+00 -1.322965556181E+00 -3.543544827678E+01 -2.606591504654E+01 -1.476093781584E+01 4.207080321895E+02 3.161403646077E+03
 7.972211587057E+00 -6.381316052707E+00 -1.032385786655E+00 1.297728535584E+01 -1.514383713912E+01 -9.667252666102E-01 3.919981553695E+00 -5.946197768712E+00 -3.107699704140E-01 -1.520990046243E+00 3.963522778019E+00 1.658042351920E+00 -5.784565692610E-01 1.832711743197E-01 -2.260479868092E+00 6.731983760166E-01 2.148120501247E+01 -8.064684544706E-01 -4.676327503973E+00 5.342533770005E-01 3.455653175725E-01 1.518746016002E+00 -3.596660261620E+00 5.636722653885E-01 -3.236534141344E+00 -8.573038893907E-01 -2.243632205612E+00 1.533700712757E-01 2.161669696976E+00 9.708782129312E-01 -8.926876479254E+01 -3.174699828715E+00 8.192635115567E+00 7.145043058241E+02 3.924477301858E+02 1.892236342570E+03
 -2.042002504547E+01 -3.340562832032E+01 6.124918845183E-01 3.965413125036E+01 -2.914843287632E-01 -1.220191640685E+00 1.037286843262E+00 1.212657300726E+00 -1.431653005145E-01 9.871374962405E-01 1.591150170123E+00 9.087923419504E-01 4.541535899980E-02 9.466543888376E-01 -1.097376481626E-01 -1.255875371311E+03 -4.338806364074E+02 2.603644784750E+01 -7.935784083932E-01 -5.197890868178E-01 1.851108446709E-01 -7.220589011158E-01 -1.209435221772E+00 -3.876477224545E-01 -1.112506356193E+00 -1.445164225689E+00 -3.525373337521E-01 -6.257841669570E-01 -1.127939017370E+00 -3.608075112350E-01 -2.512911272149E+01 3.491438936576E+01 -3.799714915278E-01 4.595403007617E-01 -1.797855729846E+01 -1.471696523261E+01 2.780998094778E+03
 3.567861942248E+01 6.014051076397E+01 -1.213383831778E+00 -6.854010226299E+01 -2.858641000431E-02 1.132238562183E+00 -6.879457198931E-01 -7.357945272085E-01 4.427487525708E-02 -6.107027944404E-01 -9.723610276078E-01 -4.291492441923E-01 -5.964290796707E-02 -4.596796307039E-01 2.021478047693E-02 -4.382641394025E+02 -7.196737478644E+02 1.117796440263E+01 4.583474882323E-01 2.727834391614E-01 -6.598786661725E-02 5.061705840278E-01 7.768139462999E-01 1.820472042315E-01 5.957505437403E-01 7.226675732941E-01 2.255691834154E-01 3.168779965530E-01 6.675382485991E-01 3.502070840057E-01 -3.074212458698E+01 5.632065851596E+01 3.710989814446E+00 -6.565075362838E+00 1.106101520044E+01 3.551326648786E+00 1.741872364688E+01 2.797484966841E+03
 -5.341670215304E-01 7.044870759141E-01 9.589249506835E+00 5.286755245962E-02 -1.041549405062E+00 8.880310728085E+00 -4.282349590756E-01 2.270758313923E-01 1.019786117356E+00 9.161442616062E-02 -3.435446066266E-02 1.475442270060E+00 -4.390614045556E-02 -1.406542848370E-01 -1.389231758647E+00 2.479021789376E+01 1.112572197548E+01 -8.353345139304E+01 5.298628905168E-01 -1.871443346480E-01 4.785050526300E+00 -4.753903549669E-01 -4.588804914702E-01 4.941019061508E+00 4.068593269266E-02 1.241690278104E-02 -2.628023123012E+00 -1.058760706101E-02 -1.842448143704E-01 -2.598177756501E-01 -1.316417369464E+00 1.851354209793E+00 2.649949829551E+00 -1.990170453224E+00 1.936814170080E+00 4.811257723723E+00 -4.605996141174E+01 1.331037088308E-01 1.950384150701E+02
 -3.228626065410E+00 3.263991054007E+00 8.520883888389E-01 -2.808717933755E+01 -1.655767255912E+01 2.100437673704E+00 -4.962891786506E+00 -1.611835961620E+00 6.672424060814E-01 -9.505496870535E-01 -4.827402856326E+00 -1.934625983480E+00 5.936751989340E-01 -4.767050558271E+00 3.040335237783E+00 -8.080694859024E-01 -2.030921073920E+01 1.251370582379E+00 4.323304711708E+00 9.435391509680E-02 -3.838805980700E-01 -9.759321793290E-01 -1.900439055988E+00 -2.128472953885E-01 5.059054984406E+00 6.399086782143E+00 2.498244600117E+00 6.939776499064E-01 5.112967761102E-01 -1.678846048083E+00 8.683057454265E+01 -9.364410482447E+01 5.596676533296E+00 6.867905166805E+01 1.532535943360E+01 1.429444992272E+02 5.178204709973E+01 6.571199538153E+01 -5.423217789216E+00 2.616038474980E+03
 2.573327151100E+00 -7.926315936516E-01 -8.905351803726E-01 4.294070876723E+01 4.390980720860E+01 -1.521844362541E+00 4.388162769275E+00 2.416851185677E+00 -9.003687881596E-01 1.788984812291E+00 3.822738154858E+00 1.537709524101E+00 -4.445928522773E-01 4.373973918289E+00 -2.515595629849E+00 -4.545473060738E-01 1.317793337540E+01 -1.078352663940E+00 -4.028320576569E+00 -8.847807336836E-01 2.968991331312E-01 3.439972207755E-01 2.398595316031E+00 3.265704496409E-01 -4.327250927401E+00 -5.949867974438E+00 -1.861527062800E+00 -7.531603852814E-01 -6.681552096351E-01 1.528438027091E+00 -3.243657565606E+01 2.607120708041E+01 -6.380342121435E+00 -1.182107998978E+02 1.136854642605E+02 -1.281239779932E+02 -1.019191778094E+01 3.346872347558E+00 4.501652617915E+00 7.936217778501E+01 2.697947390842E+03
 -1.188670044555E-01 -7.814100536577E-01 -1.273171388357E-01 -6.023151676453E-01 1.328277881845E+00 8.553142151989E+00 -4.764527084783E-01 -4.527883690031E-02 1.353528805561E-01 -2.591891672656E-01 3.166576058063E-01 -2.555370863394E-02 2.083506440987E-01 3.097583446880E-02 -2.555882065433E-01 -6.403984726372E-01 1.946753494677E+00 -8.848286320521E+00 8.095488501431E-02 5.015693520007E-02 6.234372442239E-02 -1.089261130366E-01 -5.017630292514E-01 4.618157290321E+00 4.334981237351E-01 3.356189416704E-02 -4.405104409421E-01 -3.684364135034E-01 6.385754342465E-03 2.454638193049E-01 1.448763236670E+00 1.292902017766E+00 8.211177734137E+00 -2.096800560484E+00 -3.194807327214E+01 -3.818979601210E+01 2.063165873011E+00 -2.327071509198E+00 9.143508772673E+00 -9.569859580863E+01 -3.658275818765E+01 3.226484833255E+02
 -2.457944532009E+00 2.446396727441E+00 -7.952243865548E-01 -2.286446647711E+00 4.916983146905E+00 -7.250446596065E-01 9.203436046986E-01 2.316942820473E+00 -9.803720640441E-01 2.355807556184E+00 4.190637088579E+00 5.445787893313E-01 2.310681442765E-01 1.256559025013E+00 -9.130496481812E-01 2.425185187125E+00 -5.538088248764E-01 1.537937285643E-01 -6.561372320118E-01 -1.265632664346E+00 1.354327726048E-01 -2.857859393942E+00 -5.718466876088E+00 4.165169262785E-01 -1.355007600401E+00 -1.711378424663E+00 -1.780014016498E-01 -1.440149567144E+00 -3.454061908719E+00 7.454612862993E-01 -1.258801477820E+03 4.176697789389E+02 -3.894523251204E+01 -5.127510426899E+02 -3.236404700292E+00 -1.210699520178E+02 -7.511741461044E+00 3.663582782276E+00 1.865701509107E+00 -6.460274347338E+00 1.404532505830E+01 9.166400829522E+00 2.821456827850E+03
 5.668086390175E+00 -4.500246449239E+00 -1.037929017292E-01 1.058136502887E+01 -1.784651317131E+01 1.756802058384E-01 6.503617048401E+00 7.648003091167E-01 -1.453079959440E+00 4.682110509075E-02 4.089083946708E+00 1.363013956571E+00 -9.603959861558E-01 5.068324838174E+00 -9.785143827513E-01 1.771634714125E+00 2.235753850398E+01 -1.331055518456E+00 -4.940789992106E+00 4.567128330731E-01 1.797352685461E-01 3.256953703585E+00 5.065741901456E+00 -1.509017681000E+00 -5.972855375478E+00 -6.837916326754E+00 8.844284775627E-03 1.315906829080E-01 9.343704260129E-01 5.321055970795E-01 3.688601094318E+02 -6.890730514409E+02 -1.084940688437E+00 -9.664120605426E+01 -1.475855259993E+03 -2.391872100636E+02 -1.222732053319E+01 1.112089882977E+00 6.818410790224E-01 1.714399284555E+02 -1.493722212626E+02 1.083360080574E+01 5.664154775184E+00 2.676793131282E+03
 -8.889778150260E-01 5.896481619297E-01 -1.208035383676E+00 2.898122922360E-01 1.607804076646E+00 -1.569563908558E+00 -6.470774673703E-01 4.735795750297E-01 6.651281746651E-01 6.559891216567E-01 7.190162991017E-01 1.708194992979E+00 1.622250797082E-01 -3.114622737201E-01 -3.225118301411E+00 -8.817205251705E-01 -9.265523023381E-01 -1.687990549690E-01 -2.039144292180E-01 -3.413429522780E-01 3.395134085544E-01 -1.207493355364E+00 -2.125525591346E+00 1.737401947555E+00 3.761844931616E-01 2.528675994937E-01 -4.155493503210E+00 -3.964173322821E-01 -4.789751249962E-01 1.320487691651E+00 -3.677710149735E+01 3.263332820547E+00 -1.164746455432E+02 -5.833416684430E+01 -3.964729084173E+00 -2.330368925994E+02 -2.117595227455E+00 -5.964356767984E-01 1.059454455932E+01 -2.212401292630E+01 8.142611258914E+00 -1.360506870877E+01 2.004866357189E+02 1.462402314760E+02 3.533591413775E+02
 -8.734553774012E-02 -1.025032892432E+00 1.140799038230E-01 -1.160633771790E+00 -1.860767201807E+00 -5.981271746588E-01 -1.394687843860E+00 -9.441151115602E-01 2.742553977460E-01 -1.289732627134E+00 -2.548648193430E+00 -9.333351664057E-01 -1.562543603441E-01 -7.895277416045E-01 -2.556631097573E-01 -2.090765115222E+01 3.480192773721E+01 4.144229634691E-01 1.176797720898E+00 9.529056601598E-01 -1.093440168075E-01 1.307383135310E+00 2.512402279765E+00 7.674577293864E-01 1.281772680682E+00 1.336395360508E+00 6.132972744553E-02 8.380178263052E-01 1.382238532231E+00 7.882888322549E-01 -1.203549387402E+03 -4.328916027719E+02 -2.162822985784E+01 1.994894246317E+01 5.876450837756E+01 5.802586167009E+01 -1.168333391512E+03 4.233345660154E+02 1.983569955045E+01 -4.999849673873E+02 -1.403687267965E+01 -3.850341897720E+00 -2.588118738619E+00 -2.392973492177E+01 1.815080892508E+00 2.745753188764E+03
 -1.759643757873E+00 1.118675281466E+00 2.633910943690E-01 -4.330315707661E+00 4.589119613187E+00 8.771836881640E-01 -1.405215603526E+00 4.374713113944E-01 5.151505225975E-01 2.932875237568E-02 -9.719229816470E-01 -6.657033767643E-02 1.852723456655E-01 -8.377279159355E-01 1.262746715952E-01 -3.239781430296E+01 5.357502469960E+01 1.239862471404E+00 1.356234069801E+00 5.937027159755E-03 -1.418847502078E-02 -6.890635683440E-01 -6.605978675712E-01 1.863905663749E-01 1.197598311967E+00 1.178818503156E+00 -3.700232232174E-01 2.983157249278E-02 -4.023460344637E-01 -4.625775676524E-01 -4.204028803536E+02 -7.082211719381E+02 -1.339854670984E+01 5.618981588045E+01 7.089988545162E+00 6.002155443995E+01 4.330841861640E+02 -7.207870422631E+02 -1.246467449705E+01 -6.155293080024E+01 -1.464380540301E+03 1.777695222591E+00 3.474166847584E+01 1.087558328129E+02 7.683225385390E-02 1.785617782349E+01 2.785883461673E+03
 -2.474347915954E-01 1.475600524151E+00 5.110097568047E+00 1.550019683478E+00 1.878032696491E+00 -8.268895785943E+00 5.669439963992E-01 4.892637119883E-01 -2.223393193688E+00 9.608570525786E-01 1.399045956927E+00 -3.100113127043E+00 3.766215680456E-01 9.049534369104E-01 3.486501969816E+00 1.493749213883E+00 -3.613602188882E+00 9.788437864636E+00 -9.702142188308E-01 -1.111657280268E+00 -4.272489435318E-01 -5.987411373346E-01 2.400399029547E-01 -1.276008496436E+00 -3.098285833874E-01 -8.545067018571E-01 6.077161182410E+00 -7.314018888133E-01 -6.026899171434E-01 5.709436744273E-02 -1.344912542290E+01 -7.359807776141E+00 -6.853600773730E+01 5.778823875301E+00 -1.976705428834E+01 -1.601309750609E+01 1.145202984846E+01 -5.081424161489E+00 -8.794356027133E+01 1.452887898018E+01 -8.603387524015E+00 -1.002029987898E+02 -8.537201131845E+00 -1.395423079193E+00 -7.067321867424E+00 -4.999264244290E-01 1.616033191182E+01 2.160074311980E+02
 -1.052191494440E+01 1.080028364860E+01 -2.055053074250E+00 -8.487320856183E+00 5.375116824274E+00 -4.812065600644E-01 5.941267040331E+00 1.541939463169E+01 -7.386118817816E-01 8.541358074441E+00 9.870680930088E+00 3.507052896931E+00 -1.148895286618E+00 9.196139115110E+00 -6.153027135016E+00 7.516191742901E+00 -1.781609011083E+00 -1.423386808509E+00 -2.585381439846E-01 -2.839654757630E+00 7.824465574401E-01 -5.946662545849E+00 -5.871410864175E+00 2.621079609254E+00 -8.066787278511E+00 -1.226404891424E+01 -5.344881878754E+00 -2.285954954550E+00 -1.161001384673E+01 2.805313213506E+00 1.334549660317E+01 4.657072757216E+01 -1.675546930134E+01 -1.099295005845E+03 -4.147136798773E+02 1.496589766130E+02 -1.476956746171E+01 9.735623636764E+00 1.197808328005E+01 -1.197785483728E+03 4.130711319034E+02 -1.196502218554E+01 9.858951142084E+00 -5.248091241699E+01 4.241188184075E+01 3.103183546759E+01 -1.704899194415E+01 -2.077588585328E+01 3.400617324430E+03
 -6.563633322729E+00 3.837600775239E+00 9.897479889718E-01 -1.357557266785E+01 1.670939707509E+01 2.188094777974E-01 -6.053481492301E+00 3.820100891568E-01 1.662926005243E+00 -9.834996607609E-01 -5.716916055878E+00 -2.490970897608E+00 3.143740190741E-01 -4.082700317167E+00 2.174772086991E+00 3.787390150400E-01 -2.137913976206E+01 1.089947135226E+00 6.412913350063E+00 8.420270540088E-01 -3.756283770095E-01 -1.285706061202E+00 -1.114013315227E+00 9.566875827723E-01 5.304943930106E+00 5.855946627879E+00 1.546323569751E+00 1.010168314296E+00 -6.711058046342E-01 -9.094910256852E-01 6.547790373363E+01 -2.480213126055E+01 4.625669219617E+00 -3.063419699546E+02 -7.598106431113E+02 4.042984654021E+02 1.564747774602E+01 -5.426154079700E+00 -3.140923180833E+00 2.480002906033E+02 -6.720709041155E+02 7.151179112560E+01 -9.631237614287E+01 1.901573607145E+02 -2.026746323530E+01 4.582668943667E+01 -5.090407202602E+01 1.581859344217E+01 4.012184506189E+01 2.510365696036E+03
 7.970727196459E+00 -7.140698397611E+00 -5.307675026371E-01 1.389181112016E+01 -1.442899825562E+01 3.399566637406E+00 1.415843336819E+00 -7.544246760746E+00 -1.991814352851E-01 -3.139993022723E+00 4.024453185671E-01 1.966944421925E-01 -2.459104603969E-01 -1.025640887916E+00 -1.052507521674E+00 -1.190300289552E-01 1.683343448714E+01 -7.020709566061E-01 -3.484821342925E+00 7.007016857284E-01 3.977106002062E-02 2.283337935922E+00 3.627327770775E-01 4.525336414398E-01 -5.989001348322E-01 1.191076150603E+00 -7.475893970258E-01 6.742762498452E-01 4.636824160430E+00 9.712872409561E-01 -6.476509494597E+01 -2.091470783830E+01 -7.117768273237E+00 -4.391953396068E+02 3.814898130622E+01 -2.152490592879E+02 -1.027361406306E+01 -6.157538441906E-01 5.567028263977E+00 2.049495071515E+02 -1.429844696038E+01 -2.212368760225E+02 4.231303311254E+01 -1.543278570685E+02 -4.165016256640E+01 4.226357997397E+01 6.810855160174E+01 1.410702862375E+01 -6.622201945606E+02 -4.254496366342E+02 1.861320106962E+03
 1.292315572408E+00 -9.435336751997E-01 -4.778996333255E-01 -1.224820657854E+03 4.431447136466E+02 2.260252093665E+01 1.210704618115E+00 -9.597711986147E-02 -5.944068852326E-01 -6.146837325621E-02 1.116543528145E+00 5.408213529657E-01 -2.711959883927E-01 1.100272803735E+00 -9.553989268800E-01 4.036173597779E+01 5.046678721573E+00 -1.309400647523E+00 -1.032199463185E+00 4.056525445176E-02 5.769746036042E-02 -1.917298365115E+01 3.613473230499E+01 1.772387095094E+00 -1.198741407691E+00 -1.433886405774E+00 -3.989972606386E-01 -3.738789926115E-02 7.107390436764E-02 1.058204453347E+00 -1.399590082636E+01 6.680874980387E+00 -1.672292615940E+00 -4.043394129202E+01 2.337670611703E+00 -5.516263413834E+01 -3.145415965115E+00 1.018948351807E+00 1.954876540803E+00 -1.106159221277E+03 -4.284754866322E+02 2.787894014212E+01 2.253851351692E+00 -5.263646348269E+01 5.259985305102E+00 4.363488512793E+01 1.254229679449E+01 -4.931468381517E+00 -1.644409027001E+01 2.023125195491E+01 -4.812237632335E+01 2.721684314861E+03
 -2.449875818386E-01 1.307043152521E+00 -2.706334559500E-01 4.554957673002E+02 -7.374378860637E+02 -1.410858305280E+01 2.119207133463E+00 1.948059704644E+00 -5.404577779626E-01 1.741570566312E+00 3.075417041760E+00 8.855200919929E-01 -3.651864880785E-02 1.787451611476E+00 -6.133991708529E-01 6.840344591017E+01 1.274767341287E+00 -2.136763660247E+00 -1.519636104055E+00 -8.932495806824E-01 2.269749711540E-01 -3.464026528633E+01 5.743374397335E+01 1.188277416029E+00 -2.147952598963E+00 -2.570601034868E+00 -3.541358751743E-01 -8.039673231202E-01 -1.912004533642E+00 4.466695096360E-03 -1.204400073582E+01 5.435064721636E+00 -2.005152291978E+00 3.962063553219E+00 -2.778807461027E+01 -3.397946989011E+01 -7.611149282267E+00 3.145028797385E+00 1.508981527722E+00 -3.616379089154E+02 -7.089099581921E+02 4.768593971459E+00 -1.388980610085E+01 -3.043983606866E+01 1.209926668226E+00 -5.758441283618E+01 9.719417332853E+00 -2.598262046153E+00 -1.846931760468E-01 8.921807378682E+01 -1.883229080651E+01 -1.570118724806E+01 2.798153686559E+03
 1.369336602700E+00 -1.189986255778E+00 5.745052302919E+00 2.937060379228E+01 -1.736946408060E+01 -8.092671859760E+01 5.670730089864E-01 -3.845127219902E-01 -4.306859155831E-01 -8.399120398514E-01 -3.945051928680E-01 3.797397744493E+00 1.347165993388E-01 3.530742641003E-01 3.062358135384E+00 -2.470672842997E+00 2.784223393213E-01 9.113833168302E+00 -1.993274572663E-01 3.611014894538E-01 -2.545627595564E-01 2.241650583725E+00 1.982058286655E+00 7.188298417740E+00 -1.703353124933E-01 -3.451998424441E-01 3.342829406369E+00 8.374463272801E-02 5.186102137142E-01 -1.850537739642E+00 2.361366326548E+00 7.236482040818E-01 1.656021011474E+01 -4.556334716723E+00 1.336783057981E+01 3.976265792986E+00 6.049240627613E-01 -1.928423847752E-01 -1.422748629627E+01 2.680319409247E+01 -5.150080450162E+00 -9.121490365662E+01 3.244369742511E+00 -1.166792483611E+00 -9.337088388538E+00 -2.340018811347E+00 2.719139758656E-02 2.253940418748E+01 -1.161418732294E+01 3.267487344640E+00 2.838565223870E+00 -6.273237838757E+01 5.789545380156E+01 2.054195124388E+02