#BIOSYM hessian 1
@Type: Hessian Update
@Units
 distance: 	A
 energy: 	Kcal/Mol
#header
@natom 67

#label
C1      C2      C3      C4      C5      C6      C7      C8      C9      C10     C11     C12     C13     C14     C15     C16     C17     C18     C19     C20     C21     C22     C23     H24     C25     C26     C27     C28     C29     C30     C31     C32     C33     C34     C35     C36     C37     C38     C39     C40     C41     C42     C43     C44     C45     C46     C47     C48     C49     H50     H51     H52     H53     O54     H55     H56     H57     H58     H59     H60     H61     H62     H63     H64     H65     H66     H67

#element
C  C  C  C  C  C  C  C  C  C  C  C  C  C  C  C  C  C  C  C  C  C  C  H  C  C  C  C  C  C  C  C  C  C  C  C  C  C  C  C  C  C  C  C  C  C  C  C  C  H  H  H  H  O  H  H  H  H  H  H  H  H  H  H  H  H  H 

#matrix
201
 2.789201957435E+03
 -2.495455491870E+01 2.820304215694E+03
 0.000000000000E+00 0.000000000000E+00 0.000000000000E+00
 4.010196441902E+01 6.699590445572E+01 0.000000000000E+00 2.791950285850E+03
 -5.760665122129E-01 -9.202222196832E-01 0.000000000000E+00 -2.347582894551E+01 2.767082704466E+03
 0.000000000000E+00 0.000000000000E+00 0.000000000000E+00 0.000000000000E+00 0.000000000000E+00 0.000000000000E+00
 -1.989538139400E+01 3.515314994123E+01 0.000000000000E+00 -5.978039160666E-02 -3.408932169630E-03 0.000000000000E+00 2.816187943804E+03
 -3.352245207597E+01 5.974122760941E+01 0.000000000000E+00 8.956647249585E-02 1.313881345998E-01 0.000000000000E+00 -2.941977170780E+01 2.830019329996E+03
 0.000000000000E+00 0.000000000000E+00 0.000000000000E+00 0.000000000000E+00 0.000000000000E+00 0.000000000000E+00 0.000000000000E+00 0.000000000000E+00 0.000000000000E+00
 3.861179579352E+01 -6.866593840348E+01 0.000000000000E+00 -1.957596696388E+01 3.531025063221E+01 0.000000000000E+00 4.207999414631E+01 7.246223206257E+01 0.000000000000E+00 2.787283208865E+03
 -3.760384302488E-01 8.033781657841E-01 0.000000000000E+00 -3.291138829559E+01 5.920200906404E+01 0.000000000000E+00 -2.310023012440E-01 -3.162232087486E-01 0.000000000000E+00 -1.948040473247E+01 2.836251049733E+03
 0.000000000000E+00 0.000000000000E+00 0.000000000000E+00 0.000000000000E+00 0.000000000000E+00 0.000000000000E+00 0.000000000000E+00 0.000000000000E+00 0.000000000000E+00 0.000000000000E+00 0.000000000000E+00 0.000000000000E+00
 -4.778537544528E-02 7.176147102819E-02 0.000000000000E+00 2.935510253790E-03 -1.958267689803E-02 0.000000000000E+00 4.200514950215E+01 -7.409419025056E+01 0.000000000000E+00 -2.152655514425E+01 3.846436832189E+01 0.000000000000E+00 2.634536442549E+03
 7.761287856938E-02 2.719370296087E-02 0.000000000000E+00 2.108086157475E-02 9.826950431381E-03 0.000000000000E+00 -1.856420707364E-01 -6.005348117801E-01 0.000000000000E+00 -3.520228851034E+01 6.263388075774E+01 0.000000000000E+00 -2.197967829767E+02 2.899697434851E+03
 0.000000000000E+00 0.000000000000E+00 0.000000000000E+00 0.000000000000E+00 0.000000000000E+00 0.000000000000E+00 0.000000000000E+00 0.000000000000E+00 0.000000000000E+00 0.000000000000E+00 0.000000000000E+00 0.000000000000E+00 0.000000000000E+00 0.000000000000E+00 0.000000000000E+00
 -1.228449995251E+03 4.492802592600E+02 0.000000000000E+00 -4.652291418986E+02 -1.196481488623E+01 0.000000000000E+00 9.634980452157E-02 -3.567343325305E-01 0.000000000000E+00 1.967916056981E-02 8.641772898519E-02 0.000000000000E+00 5.826686401376E-02 -8.207947583696E-02 0.000000000000E+00 2.824875494466E+03
 4.441087860000E+02 -7.453980791647E+02 0.000000000000E+00 -1.097690451390E+01 -1.432645228743E+03 0.000000000000E+00 1.710559606312E-02 1.058564353425E-01 0.000000000000E+00 3.233524428533E-02 -6.224087500801E-02 0.000000000000E+00 5.294836765788E-03 -5.443513696134E-02 0.000000000000E+00 -1.821630742636E+00 2.782354906738E+03
 0.000000000000E+00 0.000000000000E+00 0.000000000000E+00 0.000000000000E+00 0.000000000000E+00 0.000000000000E+00 0.000000000000E+00 0.000000000000E+00 0.000000000000E+00 0.000000000000E+00 0.000000000000E+00 0.000000000000E+00 0.000000000000E+00 0.000000000000E+00 0.000000000000E+00 0.000000000000E+00 0.000000000000E+00 0.000000000000E+00
 -1.200007692543E+03 -4.111882996298E+02 0.000000000000E+00 -1.454328031849E-01 1.501150251347E-01 0.000000000000E+00 -1.262234420769E+03 4.512092858349E+02 0.000000000000E+00 -4.857480506224E+02 -1.553384959903E+01 0.000000000000E+00 9.325011082707E-02 8.131578490210E-02 0.000000000000E+00 -1.957022666877E+01 -3.305326141561E+01 0.000000000000E+00 2.827596752946E+03
 -4.108144224008E+02 -7.001772302778E+02 0.000000000000E+00 2.173764052648E-01 1.114001001347E-01 0.000000000000E+00 4.533846348700E+02 -7.525429204183E+02 0.000000000000E+00 -1.738688081796E+01 -1.514575035523E+03 0.000000000000E+00 -2.545679437979E-02 5.064841381208E-02 0.000000000000E+00 3.475737872627E+01 5.868143561611E+01 0.000000000000E+00 -2.775921612492E+01 2.849326059715E+03
 0.000000000000E+00 0.000000000000E+00 0.000000000000E+00 0.000000000000E+00 0.000000000000E+00 0.000000000000E+00 0.000000000000E+00 0.000000000000E+00 0.000000000000E+00 0.000000000000E+00 0.000000000000E+00 0.000000000000E+00 0.000000000000E+00 0.000000000000E+00 0.000000000000E+00 0.000000000000E+00 0.000000000000E+00 0.000000000000E+00 0.000000000000E+00 0.000000000000E+00 0.000000000000E+00
 -2.141577801920E-01 -3.284514669252E-03 0.000000000000E+00 -1.224442600063E+03 -4.177919298289E+02 0.000000000000E+00 -4.406784279946E-02 -6.552641111418E-02 0.000000000000E+00 -1.222817977975E+03 4.431514385816E+02 0.000000000000E+00 1.943293634361E-02 2.359740549924E-02 0.000000000000E+00 3.696985855571E+01 -3.728967152854E-01 0.000000000000E+00 4.207626696276E+01 -5.967918824710E-01 0.000000000000E+00 2.809066612819E+03
 2.220265853152E-02 1.807329255514E-01 0.000000000000E+00 -4.202572315835E+02 -7.019250230538E+02 0.000000000000E+00 -8.558275123657E-03 -2.825113872385E-01 0.000000000000E+00 4.414643500021E+02 -7.396684165019E+02 0.000000000000E+00 2.470962681579E-02 1.609088793341E-02 0.000000000000E+00 -6.683830691402E+01 7.182517982371E-01 0.000000000000E+00 7.003817622469E+01 -1.011839776201E+00 0.000000000000E+00 -2.133351427405E+00 2.809305330165E+03
 0.000000000000E+00 0.000000000000E+00 0.000000000000E+00 0.000000000000E+00 0.000000000000E+00 0.000000000000E+00 0.000000000000E+00 0.000000000000E+00 0.000000000000E+00 0.000000000000E+00 0.000000000000E+00 0.000000000000E+00 0.000000000000E+00 0.000000000000E+00 0.000000000000E+00 0.000000000000E+00 0.000000000000E+00 0.000000000000E+00 0.000000000000E+00 0.000000000000E+00 0.000000000000E+00 0.000000000000E+00 0.000000000000E+00 0.000000000000E+00
 4.376916183696E-02 -1.211680056636E-01 0.000000000000E+00 4.908178182197E-02 6.193928861937E-03 0.000000000000E+00 -1.202612216492E+03 -4.106947110103E+02 0.000000000000E+00 3.413715194228E-02 -5.070667507753E-01 0.000000000000E+00 -5.221779413282E+02 4.097561207538E+00 0.000000000000E+00 5.805209598163E-02 -5.389314516755E-02 0.000000000000E+00 -1.997554360980E+01 -3.398084259333E+01 0.000000000000E+00 1.040544276475E-01 8.127777296779E-02 0.000000000000E+00 2.778088096873E+03
 1.439206523738E-02 -1.843693811492E-03 0.000000000000E+00 -8.633294049164E-02 -1.671700254924E-02 0.000000000000E+00 -4.194055871480E+02 -7.075592720590E+02 0.000000000000E+00 -2.959167302350E-01 -1.701410815922E-01 0.000000000000E+00 5.185788711491E+00 -1.636204111312E+03 0.000000000000E+00 5.841195918658E-02 -3.194305115806E-02 0.000000000000E+00 3.520585280562E+01 5.930016336540E+01 0.000000000000E+00 -5.295915753641E-03 3.732834160430E-02 0.000000000000E+00 -2.173736948186E+01 2.963572591186E+03
 0.000000000000E+00 0.000000000000E+00 0.000000000000E+00 0.000000000000E+00 0.000000000000E+00 0.000000000000E+00 0.000000000000E+00 0.000000000000E+00 0.000000000000E+00 0.000000000000E+00 0.000000000000E+00 0.000000000000E+00 0.000000000000E+00 0.000000000000E+00 0.000000000000E+00 0.000000000000E+00 0.000000000000E+00 0.000000000000E+00 0.000000000000E+00 0.000000000000E+00 0.000000000000E+00 0.000000000000E+00 0.000000000000E+00 0.000000000000E+00 0.000000000000E+00 0.000000000000E+00 0.000000000000E+00
 8.141841371484E-02 -8.791561727698E-02 0.000000000000E+00 3.977399072843E-02 -1.877725928438E-02 0.000000000000E+00 4.846061615324E-01 -2.636911236282E-01 0.000000000000E+00 -1.196789489914E+03 -4.156678837704E+02 0.000000000000E+00 -1.331106002275E+03 4.957572416890E+02 0.000000000000E+00 -5.136894023570E-02 1.449751010706E-02 0.000000000000E+00 3.839127640226E+01 -3.886956139475E-01 0.000000000000E+00 -1.944389804031E+01 -3.254729518935E+01 0.000000000000E+00 4.945422852475E+01 1.847232523730E-01 0.000000000000E+00 2.878550635793E+03
 -5.272539636555E-02 1.268513312090E-02 0.000000000000E+00 2.155704122928E-02 1.955540037251E-02 0.000000000000E+00 3.225940154627E-02 -1.345855906609E-01 0.000000000000E+00 -4.073507657409E+02 -7.019902971591E+02 0.000000000000E+00 4.937161627972E+02 -8.241372081572E+02 0.000000000000E+00 3.246559949158E-02 4.479793168376E-02 0.000000000000E+00 -6.878275733139E+01 8.730174878555E-01 0.000000000000E+00 3.467633479754E+01 5.794544550553E+01 0.000000000000E+00 8.096720936477E+01 7.084383152653E-01 0.000000000000E+00 -9.494067119480E+01 2.846051181019E+03
 0.000000000000E+00 0.000000000000E+00 0.000000000000E+00 0.000000000000E+00 0.000000000000E+00 0.000000000000E+00 0.000000000000E+00 0.000000000000E+00 0.000000000000E+00 0.000000000000E+00 0.000000000000E+00 0.000000000000E+00 0.000000000000E+00 0.000000000000E+00 0.000000000000E+00 0.000000000000E+00 0.000000000000E+00 0.000000000000E+00 0.000000000000E+00 0.000000000000E+00 0.000000000000E+00 0.000000000000E+00 0.000000000000E+00 0.000000000000E+00 0.000000000000E+00 0.000000000000E+00 0.000000000000E+00 0.000000000000E+00 0.000000000000E+00 0.000000000000E+00
 -3.243770027916E-02 3.267090781547E-03 0.000000000000E+00 2.134352686466E-05 -9.238289917766E-03 0.000000000000E+00 -5.461009522508E-02 1.449564956737E-01 0.000000000000E+00 -1.471595045348E-02 -7.168263029496E-03 0.000000000000E+00 -3.488849227138E-02 8.462812210194E-02 0.000000000000E+00 3.547220653106E-02 1.523483568569E-02 0.000000000000E+00 3.372634894977E-03 -5.010311224015E-02 0.000000000000E+00 3.772611598762E-03 4.868748844303E-03 0.000000000000E+00 -2.332422922844E-02 -4.535086905246E-02 0.000000000000E+00 4.878946785170E-02 -6.147495817615E-02 0.000000000000E+00 2.810494831287E+03
 -2.552275357711E-02 4.324092075396E-02 0.000000000000E+00 -2.359396430426E-03 1.918588328749E-03 0.000000000000E+00 -4.938003721612E-02 1.216891941022E-02 0.000000000000E+00 -1.121233810316E-03 -3.409598354017E-04 0.000000000000E+00 -1.318918034687E-02 4.341190939437E-02 0.000000000000E+00 1.611849970591E-02 -2.325202273337E-03 0.000000000000E+00 2.436510533550E-02 -5.196002614344E-02 0.000000000000E+00 1.479965766712E-02 6.816633840090E-04 0.000000000000E+00 1.197502273318E-02 -3.833527878200E-03 0.000000000000E+00 1.466570483126E-02 -2.739385572094E-02 0.000000000000E+00 1.712191714016E+00 2.800965458175E+03
 0.000000000000E+00 0.000000000000E+00 0.000000000000E+00 0.000000000000E+00 0.000000000000E+00 0.000000000000E+00 0.000000000000E+00 0.000000000000E+00 0.000000000000E+00 0.000000000000E+00 0.000000000000E+00 0.000000000000E+00 0.000000000000E+00 0.000000000000E+00 0.000000000000E+00 0.000000000000E+00 0.000000000000E+00 0.000000000000E+00 0.000000000000E+00 0.000000000000E+00 0.000000000000E+00 0.000000000000E+00 0.000000000000E+00 0.000000000000E+00 0.000000000000E+00 0.000000000000E+00 0.000000000000E+00 0.000000000000E+00 0.000000000000E+00 0.000000000000E+00 0.000000000000E+00 0.000000000000E+00 0.000000000000E+00
 1.121116201358E-02 -2.500636580157E-02 0.000000000000E+00 4.403107812978E-03 -2.258703263014E-03 0.000000000000E+00 3.393177136145E-02 1.931242084761E-02 0.000000000000E+00 1.586194882344E-03 8.235750813362E-04 0.000000000000E+00 3.733761513013E-03 -1.892527024267E-02 0.000000000000E+00 -6.277716467550E-03 -3.632232474501E-03 0.000000000000E+00 -1.114135210907E-02 2.496628853452E-02 0.000000000000E+00 -1.250804083182E-02 -5.162415054655E-05 0.000000000000E+00 -1.870411641450E-02 -4.154363126058E-04 0.000000000000E+00 -6.988111324738E-03 1.265160952622E-02 0.000000000000E+00 4.184365089239E+01 7.160749441534E+01 0.000000000000E+00 2.784321415487E+03
 7.994099042666E-03 1.462217625811E-03 0.000000000000E+00 -6.028833802642E-03 4.935956722445E-03 0.000000000000E+00 3.361012064063E-03 -1.964911267795E-02 0.000000000000E+00 2.080011866778E-03 -9.016762182490E-04 0.000000000000E+00 4.437078272449E-03 -1.506097464913E-02 0.000000000000E+00 -1.592830597413E-03 2.331396155349E-03 0.000000000000E+00 -3.048430357511E-03 8.848200478783E-03 0.000000000000E+00 2.398951637926E-03 -5.313061326412E-03 0.000000000000E+00 -4.357577121971E-04 1.102508179139E-02 0.000000000000E+00 -8.298692038184E-03 1.123567550834E-02 0.000000000000E+00 -1.135235540838E+00 -1.957951291758E+00 0.000000000000E+00 2.781330440693E+02 2.856881359930E+03
 0.000000000000E+00 0.000000000000E+00 0.000000000000E+00 0.000000000000E+00 0.000000000000E+00 0.000000000000E+00 0.000000000000E+00 0.000000000000E+00 0.000000000000E+00 0.000000000000E+00 0.000000000000E+00 0.000000000000E+00 0.000000000000E+00 0.000000000000E+00 0.000000000000E+00 0.000000000000E+00 0.000000000000E+00 0.000000000000E+00 0.000000000000E+00 0.000000000000E+00 0.000000000000E+00 0.000000000000E+00 0.000000000000E+00 0.000000000000E+00 0.000000000000E+00 0.000000000000E+00 0.000000000000E+00 0.000000000000E+00 0.000000000000E+00 0.000000000000E+00 0.000000000000E+00 0.000000000000E+00 0.000000000000E+00 0.000000000000E+00 0.000000000000E+00 0.000000000000E+00
 -2.033891345445E+01 -3.403878819331E+01 0.000000000000E+00 3.823218426321E+01 -4.226633089721E-01 0.000000000000E+00 -4.867711391903E-02 8.027211838498E-02 0.000000000000E+00 6.708852894561E-03 -2.675657080331E-02 0.000000000000E+00 -2.280594588395E-02 3.750636075526E-02 0.000000000000E+00 -1.250477402296E+03 -4.320241405499E+02 0.000000000000E+00 -4.130136094876E-02 -5.113932232495E-02 0.000000000000E+00 3.498808941126E-02 -1.970085940217E-02 0.000000000000E+00 4.221501146493E-03 6.810087790656E-03 0.000000000000E+00 1.644836598140E-02 -6.773289257700E-03 0.000000000000E+00 -1.945777118306E+01 3.434726645014E+01 0.000000000000E+00 -1.734388974658E-03 1.456069936775E-03 0.000000000000E+00 2.779024666700E+03
 3.617599685241E+01 6.087229065271E+01 0.000000000000E+00 -6.815097284661E+01 7.742763394512E-01 0.000000000000E+00 -1.552890788039E-02 6.054656853156E-02 0.000000000000E+00 4.449813070564E-03 4.179137161210E-02 0.000000000000E+00 -2.875401860203E-02 1.225728784499E-02 0.000000000000E+00 -4.367475192092E+02 -7.212422321834E+02 0.000000000000E+00 7.796078351934E-02 -1.017469336933E-01 0.000000000000E+00 7.556147503028E-04 2.083426802580E-03 0.000000000000E+00 -8.221871730532E-02 7.155601838841E-02 0.000000000000E+00 -1.757409905910E-02 -1.889536987138E-02 0.000000000000E+00 -3.231819000367E+01 5.709458306778E+01 0.000000000000E+00 7.011294911634E-03 -5.030198165177E-03 0.000000000000E+00 1.664159845437E+01 2.807014490768E+03
 0.000000000000E+00 0.000000000000E+00 0.000000000000E+00 0.000000000000E+00 0.000000000000E+00 0.000000000000E+00 0.000000000000E+00 0.000000000000E+00 0.000000000000E+00 0.000000000000E+00 0.000000000000E+00 0.000000000000E+00 0.000000000000E+00 0.000000000000E+00 0.000000000000E+00 0.000000000000E+00 0.000000000000E+00 0.000000000000E+00 0.000000000000E+00 0.000000000000E+00 0.000000000000E+00 0.000000000000E+00 0.000000000000E+00 0.000000000000E+00 0.000000000000E+00 0.000000000000E+00 0.000000000000E+00 0.000000000000E+00 0.000000000000E+00 0.000000000000E+00 0.000000000000E+00 0.000000000000E+00 0.000000000000E+00 0.000000000000E+00 0.000000000000E+00 0.000000000000E+00 0.000000000000E+00 0.000000000000E+00 0.000000000000E+00
 -8.918117372919E-03 -5.530098142349E-02 0.000000000000E+00 -1.890786317484E+01 -3.113668483182E+01 0.000000000000E+00 1.919863534301E-02 1.224595855889E-01 0.000000000000E+00 -7.715062179232E-03 5.136928556419E-03 0.000000000000E+00 -1.606835989849E-02 -1.685891372477E-03 0.000000000000E+00 1.165625877788E-02 1.227264919546E-02 0.000000000000E+00 -1.182456298651E-02 2.288572583298E-02 0.000000000000E+00 -1.945562521495E-02 -2.871151084480E-03 0.000000000000E+00 -6.648516824581E-02 -6.425368456330E-03 0.000000000000E+00 1.169787414934E-02 -9.396104886468E-03 0.000000000000E+00 3.927565443521E+01 -6.946497994432E+01 0.000000000000E+00 -2.296335425406E+01 4.061787188521E+01 0.000000000000E+00 4.026186680148E+01 6.689365442901E+01 0.000000000000E+00 2.771879655813E+03
 1.492174649311E-04 -2.024076416792E-02 0.000000000000E+00 3.375201752935E+01 5.563437538657E+01 0.000000000000E+00 -3.732197027903E-02 1.347133088050E-01 0.000000000000E+00 -3.689675135004E-03 -1.802985289138E-02 0.000000000000E+00 -2.620614523569E-02 2.862051685521E-02 0.000000000000E+00 3.634756307025E-02 1.845510591628E-02 0.000000000000E+00 5.423066217627E-03 -8.964030962857E-03 0.000000000000E+00 1.090225753523E-02 -1.812981876509E-02 0.000000000000E+00 -4.794073604399E-02 2.577222167274E-03 0.000000000000E+00 1.286907687188E-02 -1.405963400054E-02 0.000000000000E+00 -2.108368591683E-01 3.400140932123E-01 0.000000000000E+00 -4.184999716580E+01 7.403347323286E+01 0.000000000000E+00 -1.998232036630E-01 -3.376548661350E-01 0.000000000000E+00 -3.815094234510E+01 2.756146953916E+03
 0.000000000000E+00 0.000000000000E+00 0.000000000000E+00 0.000000000000E+00 0.000000000000E+00 0.000000000000E+00 0.000000000000E+00 0.000000000000E+00 0.000000000000E+00 0.000000000000E+00 0.000000000000E+00 0.000000000000E+00 0.000000000000E+00 0.000000000000E+00 0.000000000000E+00 0.000000000000E+00 0.000000000000E+00 0.000000000000E+00 0.000000000000E+00 0.000000000000E+00 0.000000000000E+00 0.000000000000E+00 0.000000000000E+00 0.000000000000E+00 0.000000000000E+00 0.000000000000E+00 0.000000000000E+00 0.000000000000E+00 0.000000000000E+00 0.000000000000E+00 0.000000000000E+00 0.000000000000E+00 0.000000000000E+00 0.000000000000E+00 0.000000000000E+00 0.000000000000E+00 0.000000000000E+00 0.000000000000E+00 0.000000000000E+00 0.000000000000E+00 0.000000000000E+00 0.000000000000E+00
 3.401442816188E-02 2.088111991566E-02 0.000000000000E+00 4.145716362208E-04 7.011847104040E-03 0.000000000000E+00 3.926007832049E-02 -1.713507354068E-01 0.000000000000E+00 1.602134064076E-02 2.640838140760E-03 0.000000000000E+00 3.733709627780E-02 -7.560632729036E-02 0.000000000000E+00 -4.014011365266E-02 -1.352118342027E-02 0.000000000000E+00 -1.537943836976E-02 3.809494183369E-02 0.000000000000E+00 2.963546336434E-03 -4.561897139155E-03 0.000000000000E+00 4.814995412190E-02 4.052717001161E-02 0.000000000000E+00 -4.534811941290E-02 5.785558262683E-02 0.000000000000E+00 -1.232273996626E+03 4.358292136113E+02 0.000000000000E+00 -5.072513088024E+02 -2.009288271278E+01 0.000000000000E+00 2.246817968384E-02 1.536959192475E-02 0.000000000000E+00 1.652807349201E-02 4.184217850314E-02 0.000000000000E+00 2.842935428380E+03
 -2.748900622842E-03 -2.677455140200E-02 0.000000000000E+00 3.219853724508E-03 -5.170021041686E-03 0.000000000000E+00 4.532691845029E-03 4.730448504091E-02 0.000000000000E+00 -6.433203245242E-03 -1.381633632098E-03 0.000000000000E+00 -5.326533591645E-03 9.812825653753E-03 0.000000000000E+00 6.617005757316E-03 2.020349562270E-03 0.000000000000E+00 1.572584362914E-03 1.091752423961E-02 0.000000000000E+00 -8.340249881524E-03 5.344057993214E-03 0.000000000000E+00 -1.654063075156E-02 -1.847611938245E-02 0.000000000000E+00 9.361858839304E-03 -9.912234512939E-03 0.000000000000E+00 4.379604524056E+02 -7.348847762142E+02 0.000000000000E+00 -3.012640537612E+01 -1.541036878022E+03 0.000000000000E+00 -1.345935150314E-03 3.053286933099E-03 0.000000000000E+00 1.589766198811E-02 -1.589801962082E-02 0.000000000000E+00 2.932395281678E+01 2.893036889467E+03
 0.000000000000E+00 0.000000000000E+00 0.000000000000E+00 0.000000000000E+00 0.000000000000E+00 0.000000000000E+00 0.000000000000E+00 0.000000000000E+00 0.000000000000E+00 0.000000000000E+00 0.000000000000E+00 0.000000000000E+00 0.000000000000E+00 0.000000000000E+00 0.000000000000E+00 0.000000000000E+00 0.000000000000E+00 0.000000000000E+00 0.000000000000E+00 0.000000000000E+00 0.000000000000E+00 0.000000000000E+00 0.000000000000E+00 0.000000000000E+00 0.000000000000E+00 0.000000000000E+00 0.000000000000E+00 0.000000000000E+00 0.000000000000E+00 0.000000000000E+00 0.000000000000E+00 0.000000000000E+00 0.000000000000E+00 0.000000000000E+00 0.000000000000E+00 0.000000000000E+00 0.000000000000E+00 0.000000000000E+00 0.000000000000E+00 0.000000000000E+00 0.000000000000E+00 0.000000000000E+00 0.000000000000E+00 0.000000000000E+00 0.000000000000E+00
 -1.682390105228E-02 3.773062047761E-02 0.000000000000E+00 2.263854259244E-02 1.881563849494E-02 0.000000000000E+00 -1.616875417151E-02 -4.998871554292E-02 0.000000000000E+00 -8.348245170037E-04 2.443155405833E-02 0.000000000000E+00 2.367574789519E-03 -1.071405330903E-02 0.000000000000E+00 -1.968338530143E+01 3.502054040441E+01 0.000000000000E+00 4.220039713488E-02 -2.904890367715E-02 0.000000000000E+00 2.558721181076E-03 1.282056807545E-02 0.000000000000E+00 -3.120546266664E-03 2.631925624875E-02 0.000000000000E+00 -9.431484078133E-03 -5.310716423925E-03 0.000000000000E+00 -1.224662992669E+03 -4.238811673829E+02 0.000000000000E+00 -1.965047207255E-02 3.487248709768E-02 0.000000000000E+00 -1.171522981895E+03 4.257519770095E+02 0.000000000000E+00 -4.721779345932E+02 -1.248391612239E+01 0.000000000000E+00 -1.968989798418E+01 -3.373839749374E+01 0.000000000000E+00 2.753165400977E+03
 3.087306976371E-02 -6.582406635539E-02 0.000000000000E+00 2.171579492391E-02 -1.895978349552E-02 0.000000000000E+00 7.756283145420E-02 -8.573797059792E-02 0.000000000000E+00 2.060098490974E-03 1.699900752841E-03 0.000000000000E+00 3.270057687048E-02 -6.431057189610E-02 0.000000000000E+00 -3.272425359444E+01 5.821761984955E+01 0.000000000000E+00 -3.465941489606E-02 8.866653723758E-02 0.000000000000E+00 -2.930692325290E-02 9.527523000969E-03 0.000000000000E+00 1.719250533882E-02 -1.456820810152E-02 0.000000000000E+00 -2.051466394074E-02 4.052608771103E-02 0.000000000000E+00 -4.270934846969E+02 -7.108388583072E+02 0.000000000000E+00 3.713095712432E-02 1.925390635751E-02 0.000000000000E+00 4.271623619733E+02 -7.202372568733E+02 0.000000000000E+00 -3.128219531698E+00 -1.497344385445E+03 0.000000000000E+00 3.473876779912E+01 5.961568663079E+01 0.000000000000E+00 3.422639439156E+00 2.810445971337E+03
 0.000000000000E+00 0.000000000000E+00 0.000000000000E+00 0.000000000000E+00 0.000000000000E+00 0.000000000000E+00 0.000000000000E+00 0.000000000000E+00 0.000000000000E+00 0.000000000000E+00 0.000000000000E+00 0.000000000000E+00 0.000000000000E+00 0.000000000000E+00 0.000000000000E+00 0.000000000000E+00 0.000000000000E+00 0.000000000000E+00 0.000000000000E+00 0.000000000000E+00 0.000000000000E+00 0.000000000000E+00 0.000000000000E+00 0.000000000000E+00 0.000000000000E+00 0.000000000000E+00 0.000000000000E+00 0.000000000000E+00 0.000000000000E+00 0.000000000000E+00 0.000000000000E+00 0.000000000000E+00 0.000000000000E+00 0.000000000000E+00 0.000000000000E+00 0.000000000000E+00 0.000000000000E+00 0.000000000000E+00 0.000000000000E+00 0.000000000000E+00 0.000000000000E+00 0.000000000000E+00 0.000000000000E+00 0.000000000000E+00 0.000000000000E+00 0.000000000000E+00 0.000000000000E+00 0.000000000000E+00
 -1.244443955590E-02 2.083578687760E-02 0.000000000000E+00 -3.884525514243E-03 6.881878457513E-06 0.000000000000E+00 -3.228329617069E-02 -6.164718264400E-03 0.000000000000E+00 -2.380929398678E-03 -4.145188526668E-03 0.000000000000E+00 -6.922457574770E-03 2.993783287359E-02 0.000000000000E+00 1.087632069327E-02 3.541281583685E-03 0.000000000000E+00 8.296239932067E-03 -2.825532066963E-02 0.000000000000E+00 1.156014905889E-02 -3.491264691729E-04 0.000000000000E+00 2.306400421810E-02 -6.946869292493E-03 0.000000000000E+00 1.427759501542E-02 -1.860198621617E-02 0.000000000000E+00 -2.945857652818E-02 5.553012898074E-03 0.000000000000E+00 -1.508841437835E+03 -5.264791904100E+02 0.000000000000E+00 -4.281037510709E-03 -1.012618746386E-02 0.000000000000E+00 -1.275530752433E+03 4.367458262144E+02 0.000000000000E+00 4.855019057393E+01 -1.304659339534E+00 0.000000000000E+00 3.950992332853E+01 -2.139054499122E-01 0.000000000000E+00 3.074393557764E+03
 -3.649881132752E-03 2.330160895321E-02 0.000000000000E+00 2.500678588520E-03 -4.723845724068E-04 0.000000000000E+00 -7.845362212106E-03 -3.279529045282E-02 0.000000000000E+00 4.635068017215E-03 1.976272333380E-03 0.000000000000E+00 2.696835209241E-03 1.866708495536E-03 0.000000000000E+00 -6.183390382258E-03 -3.632206057564E-03 0.000000000000E+00 8.010462245972E-04 -1.393845646576E-02 0.000000000000E+00 5.820528938614E-03 -6.561787867824E-05 0.000000000000E+00 1.540516641605E-02 5.064096918238E-03 0.000000000000E+00 -3.434495142193E-03 1.782794492889E-03 0.000000000000E+00 -2.070318441155E-03 2.213005219130E-02 0.000000000000E+00 -5.362648781544E+02 -8.627275331948E+02 0.000000000000E+00 1.231448604609E-03 3.455346473648E-03 0.000000000000E+00 4.215560568744E+02 -7.278786673336E+02 0.000000000000E+00 -8.593357865355E+01 2.336260128302E+00 0.000000000000E+00 7.189696311240E+01 -4.037320236410E-01 0.000000000000E+00 8.894622282871E+01 2.538292846393E+03
 0.000000000000E+00 0.000000000000E+00 0.000000000000E+00 0.000000000000E+00 0.000000000000E+00 0.000000000000E+00 0.000000000000E+00 0.000000000000E+00 0.000000000000E+00 0.000000000000E+00 0.000000000000E+00 0.000000000000E+00 0.000000000000E+00 0.000000000000E+00 0.000000000000E+00 0.000000000000E+00 0.000000000000E+00 0.000000000000E+00 0.000000000000E+00 0.000000000000E+00 0.000000000000E+00 0.000000000000E+00 0.000000000000E+00 0.000000000000E+00 0.000000000000E+00 0.000000000000E+00 0.000000000000E+00 0.000000000000E+00 0.000000000000E+00 0.000000000000E+00 0.000000000000E+00 0.000000000000E+00 0.000000000000E+00 0.000000000000E+00 0.000000000000E+00 0.000000000000E+00 0.000000000000E+00 0.000000000000E+00 0.000000000000E+00 0.000000000000E+00 0.000000000000E+00 0.000000000000E+00 0.000000000000E+00 0.000000000000E+00 0.000000000000E+00 0.000000000000E+00 0.000000000000E+00 0.000000000000E+00 0.000000000000E+00 0.000000000000E+00 0.000000000000E+00
 4.862261709821E-02 4.913862609392E-02 0.000000000000E+00 -1.223138356464E+03 4.481903563408E+02 0.000000000000E+00 -1.506016093842E-02 -1.469113195217E-01 0.000000000000E+00 3.616185251509E-02 -4.215556136253E-02 0.000000000000E+00 2.200948394678E-02 -1.696122187427E-02 0.000000000000E+00 4.061114875496E+01 -4.592499889653E-01 0.000000000000E+00 -3.070201869819E-02 1.728165848901E-03 0.000000000000E+00 -1.994558140969E+01 3.596741362926E+01 0.000000000000E+00 8.716146362383E-02 2.689144293185E-02 0.000000000000E+00 -3.407159384033E-02 4.940606810686E-02 0.000000000000E+00 1.446666454241E-02 4.637095854210E-03 0.000000000000E+00 -2.102910663023E-03 -4.502914673473E-04 0.000000000000E+00 2.665372789434E-02 1.216772775007E-02 0.000000000000E+00 -1.140851362830E+03 -3.877304293928E+02 0.000000000000E+00 -1.337591056727E-02 2.792387714899E-03 0.000000000000E+00 3.642196036609E+01 -2.134477106172E-01 0.000000000000E+00 -1.767899879682E+01 -3.220731470024E+01 0.000000000000E+00 2.730137899361E+03
 7.166604745834E-03 4.561391929142E-02 0.000000000000E+00 4.576980708119E+02 -7.454100718275E+02 0.000000000000E+00 3.071843418964E-02 -1.599566035910E-01 0.000000000000E+00 3.526668934967E-03 6.399015728451E-02 0.000000000000E+00 2.681528503293E-02 -2.037334844413E-02 0.000000000000E+00 6.684655679920E+01 -7.741821322401E-01 0.000000000000E+00 8.547634356144E-03 -1.871790280217E-02 0.000000000000E+00 -3.293898042447E+01 5.941967299591E+01 0.000000000000E+00 3.137185666504E-02 -1.786682478058E-03 0.000000000000E+00 -2.472286708404E-02 -2.018150313646E-02 0.000000000000E+00 2.249907710875E-02 8.763763013624E-03 0.000000000000E+00 -1.081420629710E-03 -6.204494337479E-03 0.000000000000E+00 -2.673366657094E-03 -1.327149445851E-02 0.000000000000E+00 -3.861199007423E+02 -6.652299011743E+02 0.000000000000E+00 -1.906545304379E-02 3.306202726612E-03 0.000000000000E+00 -6.514187645072E+01 3.443059887044E-01 0.000000000000E+00 3.160180342758E+01 5.754599892260E+01 0.000000000000E+00 -7.875789530922E+00 2.819763093737E+03
 0.000000000000E+00 0.000000000000E+00 0.000000000000E+00 0.000000000000E+00 0.000000000000E+00 0.000000000000E+00 0.000000000000E+00 0.000000000000E+00 0.000000000000E+00 0.000000000000E+00 0.000000000000E+00 0.000000000000E+00 0.000000000000E+00 0.000000000000E+00 0.000000000000E+00 0.000000000000E+00 0.000000000000E+00 0.000000000000E+00 0.000000000000E+00 0.000000000000E+00 0.000000000000E+00 0.000000000000E+00 0.000000000000E+00 0.000000000000E+00 0.000000000000E+00 0.000000000000E+00 0.000000000000E+00 0.000000000000E+00 0.000000000000E+00 0.000000000000E+00 0.000000000000E+00 0.000000000000E+00 0.000000000000E+00 0.000000000000E+00 0.000000000000E+00 0.000000000000E+00 0.000000000000E+00 0.000000000000E+00 0.000000000000E+00 0.000000000000E+00 0.000000000000E+00 0.000000000000E+00 0.000000000000E+00 0.000000000000E+00 0.000000000000E+00 0.000000000000E+00 0.000000000000E+00 0.000000000000E+00 0.000000000000E+00 0.000000000000E+00 0.000000000000E+00 0.000000000000E+00 0.000000000000E+00 0.000000000000E+00