#BIOSYM hessian 1
@Type: Hessian Update
@Units
 distance: 	A
 energy: 	Kcal/Mol
#header
@natom 67

#label
C1      C2      C3      C4      C5      C6      C7      C8      C9      C10     C11     C12     C13     C14     C15     C16     C17     C18     C19     C20     C21     C22     C23     H24     C25     C26     C27     C28     C29     C30     C31     C32     C33     C34     C35     C36     C37     C38     C39     C40     C41     C42     C43     C44     C45     C46     C47     C48     C49     H50     H51     H52     H53     H54     H55     H56     H57     H58     H59     H60     H61     H62     H63     H64     H65     H66     H67

#element
C  C  C  C  C  C  C  C  C  C  C  C  C  C  C  C  C  C  C  C  C  C  C  H  C  C  C  C  C  C  C  C  C  C  C  C  C  C  C  C  C  C  C  C  C  C  C  C  C  H  H  H  H  H  H  H  H  H  H  H  H  H  H  H  H  H  H 

#matrix
201
 2.782078870761E+03
 -2.032736503950E+01 2.809704513692E+03
 -2.357797250433E+01 -1.306218357369E+01 1.939420799758E+02
 3.911380964987E+01 6.676613576503E+01 -7.145174087418E-01 2.775436537337E+03
 -3.204800184737E-01 -7.262374551360E-01 6.529849486693E-02 -9.827245598688E-01 2.766082193636E+03
 7.719593952494E-02 -7.323624802557E-01 9.878477482219E+00 -2.768271301434E+01 -2.225268445702E+01 1.922564197165E+02
 -1.990604035476E+01 3.477078549407E+01 7.771669833113E-02 -4.363853452391E-01 1.097968397743E-01 2.270422122290E-01 2.808284207998E+03
 -3.354620847694E+01 5.930969353105E+01 8.552795223677E-02 -1.513148388178E-01 -4.991798048948E-02 8.853510361172E-03 -2.672935375757E+01 2.821064312335E+03
 7.626507820367E-01 -6.484418547553E-01 9.941605092594E+00 1.148249971909E-01 -7.472886550172E-02 4.806168427401E-01 -1.972446382400E+01 -1.413175225421E+01 1.957628377051E+02
 3.863584729597E+01 -6.885820423631E+01 3.101048588015E-01 -2.004217626190E+01 3.558259543495E+01 -1.143069200759E-01 4.201967800536E+01 7.159154634298E+01 -7.451727708066E-01 2.784168752305E+03
 -6.727780166465E-01 7.551200538834E-01 1.002210409314E-01 -3.325786887015E+01 5.969083747048E+01 -2.390135561106E-01 -5.969080451036E-01 -9.745125679899E-01 9.695979766381E-02 -1.894465004896E+01 2.833711882889E+03
 -9.624185695668E-02 4.923871639070E-01 9.632033658136E+00 7.552252030460E-01 -8.765211340560E-01 9.761900797534E+00 -2.187977483051E-01 -5.542940410113E-01 9.028347033922E+00 -1.967218911702E+01 -2.121029542811E+01 1.950618158994E+02
 -1.940789037839E-01 -4.851844041208E-02 1.174855065694E-01 -3.120413758593E-01 2.088210910447E-02 1.019217489928E-01 4.172820079651E+01 -7.369747859457E+01 3.922889077834E-01 -2.151376530842E+01 3.840015137319E+01 -3.902179371641E-02 2.632820832969E+03
 -1.134217545193E-01 -6.212070512823E-02 -5.635885503086E-02 -7.104469583868E-02 -1.479926485108E-02 -6.701700000326E-03 1.268400319073E-01 -4.656077162706E-01 1.446902567084E-01 -3.507049871735E+01 6.269984839353E+01 -1.214499869295E-01 -2.204936158896E+02 2.899180235200E+03
 3.563094155586E-01 -9.880253658147E-02 1.229121240141E+00 2.213473804195E-01 -6.075608728552E-02 1.365887322490E+00 9.982368540946E-03 5.735947247098E-01 1.114049189686E+01 7.276865131364E-01 -5.676536044898E-01 1.077014179070E+01 -1.590627534345E+01 -1.926468677003E+01 1.564183378603E+02
 -1.224044056815E+03 4.463595657482E+02 8.693022920130E+00 -4.620172761822E+02 -1.227197576628E+01 3.722458947433E+00 3.678097635754E-01 2.057485788169E-01 -9.324007074719E-02 1.141182975070E-01 2.644937470138E-01 -2.873705202490E-01 2.509075610098E-01 1.737618337729E-01 -3.747230763917E-01 2.810564645504E+03
 4.416774269023E+02 -7.419016528090E+02 -7.029041070836E-01 -1.316689060812E+01 -1.436376663201E+03 1.095800629019E+01 -5.014510460232E-02 7.925858630855E-03 4.205392074916E-02 1.141361450564E-02 8.577426204759E-02 3.333699254027E-02 -2.392148601284E-02 2.634959472020E-02 9.510534501220E-02 1.725687914250E+00 2.778447263860E+03
 8.872541808983E+00 -2.184240352129E-01 -8.336701025271E+01 4.370513624021E+00 1.078409496545E+01 -8.096870925673E+01 -1.555157210395E-01 4.946187287145E-02 4.660759157529E+00 3.053088892111E-02 -5.851100583577E-02 -9.168020327699E+00 2.455763732969E-02 5.877173630949E-02 -5.615040382896E-02 -2.877967231831E+01 -1.913254303119E+01 1.916175363606E+02
 -1.199211245285E+03 -4.124989925086E+02 1.179138502789E+01 7.809489852281E-01 -1.527198746540E-01 -2.600406048112E-01 -1.251940623116E+03 4.459151246315E+02 6.457557747761E+00 -4.855546038041E+02 -1.604117123194E+01 3.260366660262E+00 1.041611066770E-01 5.370603085280E-02 -4.025690825673E-01 -2.013411236454E+01 -3.273311633484E+01 5.266587613269E-01 2.816720279972E+03
 -4.125858830969E+02 -6.994407777483E+02 6.868939763741E+00 4.726005171424E-01 -1.186423202947E-01 -4.303691042703E-02 4.476519422957E+02 -7.471933375636E+02 3.395941959208E-01 -1.760399798127E+01 -1.515303126717E+03 1.134321039846E+01 6.886177315480E-02 1.945481489550E-01 -1.558184009744E-01 3.435261571933E+01 5.830410298961E+01 -7.163569710273E-01 -1.994770268770E+01 2.844119400361E+03
 1.183910022945E+01 7.501087759373E+00 -8.201237571741E+01 -3.205235297984E-01 -9.986378099365E-02 -9.339035383243E+00 6.291169479535E+00 6.175685731640E-01 -8.539772013440E+01 3.311747798600E+00 1.090191180025E+01 -8.521072688675E+01 3.598296860690E-02 -5.315020763497E-02 -1.022928086637E+01 2.608741569969E-01 -1.388358633077E-01 8.885147461705E+00 -2.117138643504E+01 -1.875144528508E+01 1.961228752339E+02
 4.023225719022E-01 2.018770443210E-01 -1.100213898712E-01 -1.236520978339E+03 -4.256860582417E+02 1.558783240056E+01 1.255826102700E-01 1.787801580565E-02 -5.959745417969E-02 -1.220124575624E+03 4.426513805993E+02 5.279595043242E+00 1.469015580316E-01 6.029534775532E-02 -1.263134466394E-01 3.683866701166E+01 -4.882600658899E-01 -3.867918741375E-01 4.150022837848E+01 -6.555584556427E-01 -1.149419318401E-01 2.817007944922E+03
 3.603841119116E-01 -9.780650821922E-03 -1.383823508295E-01 -4.261035795707E+02 -7.068220828224E+02 1.024583686423E+01 1.482568892573E-02 -4.384081109091E-02 2.589074580836E-02 4.394763233740E+02 -7.390807772298E+02 2.444259195921E+00 4.207939667225E-02 5.944865363322E-03 -1.730280839595E-02 -6.780048949535E+01 8.402649305508E-01 9.319776190441E-01 6.993670332664E+01 -7.153831733069E-01 -2.800950642951E-01 6.186103455458E+00 2.799216817460E+03
 -5.290554592443E-01 -2.169292634284E-02 -1.006090819228E+01 1.546456377388E+01 1.033859643686E+01 -8.364192725307E+01 -1.893706631955E-01 -4.894004298265E-02 4.435964567045E+00 5.188758575298E+00 2.666216284958E+00 -8.352409070862E+01 -1.287846753629E-01 3.645296740985E-02 3.958994219560E+00 5.275977935680E-01 1.074980544159E-01 8.926167951015E+00 -5.255611689341E-01 1.524126040661E-01 9.487787440539E+00 -2.370963477665E+01 -2.881643042660E+01 1.955433409110E+02
 5.345233498263E-02 2.281691009009E-02 -1.282869837641E-01 1.062287801993E-01 7.797932148055E-03 -9.091027887325E-02 -1.202482851170E+03 -4.076433976891E+02 1.041793069260E+01 1.619083161213E-02 1.133346995093E-02 -8.477214740819E-02 -5.216991732513E+02 3.981681969648E+00 3.250805427116E+00 -6.870618588772E-02 2.307283033055E-02 3.883483562319E-02 -1.980386335126E+01 -3.363649790489E+01 3.940468686992E-01 -6.818572682030E-02 3.098345650631E-03 1.609460575884E-01 2.778367996269E+03
 2.351863327360E-01 4.035510572499E-02 -2.996909868351E-02 2.993310461050E-01 -7.411947249766E-03 -4.402094905249E-02 -4.158281921292E+02 -7.025543938475E+02 6.646969560489E+00 1.902816227445E-02 3.480693968635E-02 -1.491349605891E-01 5.708942374617E+00 -1.634722913232E+03 1.152855259006E+01 -3.008429755873E-01 1.119983483074E-02 -6.808372372457E-02 3.473036175996E+01 5.923767350023E+01 -6.738649585391E-01 -1.559308855787E-01 -6.017078958942E-02 1.047055325524E-01 -2.845179928920E+01 2.959668862868E+03
 -1.553829456774E-01 8.277343274689E-02 3.718327087129E+00 -6.338500143924E-02 1.707067218213E-01 -1.303524422776E+00 1.057415079076E+01 6.818848335015E+00 -8.368126378506E+01 -3.293670745833E-01 -8.529071797574E-02 -1.040270414809E+01 2.989890285676E+00 1.115099711878E+01 -7.892211516358E+01 1.916517552786E-01 -4.991144906824E-02 3.807481754330E-02 2.161299708631E-01 1.921648220695E-02 1.048836009817E+01 2.256051215299E-02 4.181467775942E-02 9.714153156975E-01 -1.876368575132E+01 -1.849484253983E+01 1.845912624131E+02
 2.303068929177E-01 1.156427889355E-02 -3.665616566277E-02 2.910297536300E-01 3.586982120896E-02 -6.857143418611E-02 4.106291434474E-02 1.151002007417E-01 -1.856382827816E-01 -1.195862599167E+03 -4.137546670669E+02 1.160054245268E+01 -1.330345767329E+03 4.956568803179E+02 4.994723628279E+00 -2.636938546218E-01 3.109047132960E-02 -6.171507240264E-02 3.836004273593E+01 -6.199977375052E-01 -3.041595448752E-01 -1.944966329206E+01 -3.264832192953E+01 6.349532479156E-01 4.963020373202E+01 9.744308013947E-02 -1.151602770116E-02 2.877156043346E+03
 -1.982369111770E-01 -1.788278640939E-02 1.321429215449E-01 -4.244079976396E-01 4.956782998271E-02 8.479992938397E-02 -2.700886935515E-02 5.429653749985E-02 -8.735674832494E-02 -4.055846812022E+02 -6.997950758474E+02 8.219763640719E+00 4.940525330838E+02 -8.248878865768E+02 2.540243838995E+00 2.376522406934E-01 -4.984888371382E-02 -4.779770909177E-02 -6.863541460609E+01 9.046888345593E-01 6.738706134541E-01 3.454235755227E+01 5.798755276495E+01 -8.017010058449E-01 8.106450700860E+01 4.164614026518E-01 -5.060373742007E-01 -9.666081231276E+01 2.851818458607E+03
 -4.714012576179E-01 1.335491182132E-01 2.220201959827E+00 -1.641310364667E-01 6.231155066094E-02 2.329535728850E+00 -2.960922592830E-01 -1.479718430380E-01 -1.099394611530E+01 1.159227145021E+01 8.319305206108E+00 -8.314325655192E+01 4.808462968231E+00 2.617564777775E+00 -8.041515201914E+01 4.000643615937E-01 -1.071028886969E-02 1.491092901665E-01 5.615876197547E-01 2.213866231222E-01 1.067478008062E+01 1.250727438083E-01 -1.499511894017E-01 9.920281866898E+00 -7.394753689549E-01 2.154731823081E-01 1.157609001147E+01 -1.869847325194E+01 -2.335610254072E+01 1.878982992907E+02
 -3.173860120610E+00 -2.795952159345E-01 6.892112505232E-01 -5.493347455066E+00 1.112569732633E+00 8.184033148498E-01 -1.635672692791E+00 4.655681194779E-01 5.665740825216E-01 -3.158896264194E-01 -9.939182702308E-02 6.435997766829E-01 -5.821760856181E-01 5.021200811317E-01 1.139826400408E+00 3.373097603649E+00 -9.020331846785E-01 -3.358426098265E-01 2.287948673131E+00 1.116169859878E-01 -4.304455942089E-01 2.277066961232E+00 1.514883933484E+00 -1.225048022003E+00 3.846750610696E-01 2.583976841745E-01 -7.237504394568E-01 5.220159609553E-01 -1.396720307455E+00 -1.299250825319E+00 2.714937453407E+03
 5.888518796092E-01 3.608649981245E-01 9.974907250468E-01 8.512815236142E-01 2.695188430815E-01 1.144016436999E+00 2.196512106291E-01 5.614416906609E-02 6.774818535365E-01 2.109654382437E-01 5.620468502128E-02 3.865088700449E-01 3.032140994996E-01 4.180340247115E-01 1.106042766723E+00 -6.598120431440E-01 -2.301993827345E-01 -9.227170548033E-02 -5.493340280375E-01 -4.445632329586E-01 -3.805777993540E-01 -3.041179398477E-01 -9.074321154030E-02 -1.159957333091E+00 -6.198989107811E-02 -1.676762840606E-01 -5.174116104447E-01 -2.279799763185E-01 2.076772969951E-01 -2.069280838615E+00 8.335361843772E+01 2.728837141969E+03
 1.570574041026E-01 6.763724861466E-02 -4.691654084158E-02 1.878626157089E-01 -1.709093288231E-01 8.498900237975E-01 6.116598477864E-02 2.268130404589E-01 -7.029524614254E-02 5.813733126584E-02 2.529775702829E-01 5.031882657948E-01 2.248970714182E-01 2.665037487466E-01 -8.145731425864E-04 -2.767377934639E-01 -1.992459354945E-01 4.553976562691E+00 -1.463502855088E-01 -3.762074256747E-01 -7.909180738669E-02 2.439507135236E-01 -1.569218865125E-01 -6.944529284898E-01 6.389288535521E-02 -3.062510315596E-01 -2.288184656596E+00 -1.498250317470E-01 1.113367714588E-01 1.559438579059E+00 -6.299727983913E+01 4.027560357502E+00 1.974287501038E+02
 -3.175060427866E+00 -8.347410993030E-01 1.486698265909E+00 -5.218561535419E+00 1.361149590611E+00 1.768054342239E+00 -1.412417045750E+00 -3.646606423679E-01 9.141372655791E-01 -6.326110829791E-01 -2.555120352748E-01 8.593461283077E-01 -8.305476829908E-01 -5.534445470219E-02 2.276227445327E+00 4.185970123218E+00 -4.363178178734E-01 -6.733461459318E-01 2.437721412113E+00 7.820168487424E-01 -6.807613314893E-01 2.136113536049E+00 9.249646445298E-01 -2.131420142463E+00 4.762512741856E-01 8.298036482201E-01 -1.580240900114E+00 8.966323940861E-01 -1.092106502982E+00 -2.922255577857E+00 1.829548340742E+01 6.370608112163E+01 -8.639309370960E-01 2.811490220135E+03
 -5.241530054319E+00 -1.188578886357E+00 8.067415689766E-01 -8.810746807146E+00 2.091278559797E+00 8.297087532102E-01 -2.214543401151E+00 -3.860379663772E-01 5.838974595704E-01 -9.452126334729E-01 -5.512460427249E-01 6.844292153993E-01 -1.476989864563E+00 -3.212730402777E-01 1.566756684569E+00 6.673453634289E+00 -8.232636813029E-01 -5.675910935377E-01 3.946100067702E+00 1.445013678249E+00 -4.647020186975E-01 3.355067680832E+00 1.801321111946E+00 -1.395305558774E+00 5.455622585371E-01 1.440349456478E+00 -1.057976517875E+00 1.467798182343E+00 -1.932459944270E+00 -1.616929421596E+00 -3.156521625075E+01 6.765633778975E-01 3.452487052783E+00 2.830949022929E+02 2.726683721496E+03
 -2.812809255580E-01 -1.191971918340E-01 -1.618034309821E+00 -1.181581493255E-01 -5.350004086019E-02 -1.362724316451E+00 -2.596900873087E-02 -1.233178585965E-01 -1.058064857179E+00 3.316161264741E-02 -2.347344607617E-01 -6.393659651013E-02 -4.913085623420E-02 -8.428945415505E-02 -1.533264594039E+00 4.811882690192E-01 4.603419356606E-01 2.010364390214E-01 8.605709014509E-02 2.934640099212E-01 5.455050701364E-01 -2.028900351542E-01 -8.492629505232E-02 1.350372766191E+00 -8.056029706887E-02 -1.667870112999E-03 -3.421759200657E-01 -1.721880264995E-02 6.045459628858E-02 3.739673745151E+00 3.000797838412E+00 -6.139261484958E+00 1.621067843950E+01 -7.347238186488E+01 -3.395233324542E+01 1.579375665711E+02
 -2.128506715065E+01 -3.423754806478E+01 9.191731654798E-01 3.608174283613E+01 -4.582573615387E-01 1.071069509720E-02 -4.074060009883E-01 -1.885833107916E-01 2.210100776076E-01 -2.036878057910E-01 -1.403650352363E-01 1.432626746624E-01 -3.108858980660E-01 -1.825970897684E-01 4.307141399997E-01 -1.241539134825E+03 -4.301634809862E+02 1.609090058582E+01 7.959177596845E-01 4.204921566974E-01 1.455993453333E-02 5.791909789098E-01 2.251809160023E-01 -2.932581611257E-01 9.195156780257E-02 3.501553792020E-01 -2.323867465035E-01 3.056386559401E-01 -3.547170514706E-01 -5.680007524321E-01 -2.505210227784E+01 3.591895700254E+01 2.282990472103E-01 -4.793286467651E+00 -8.223528328515E+00 -4.940117356903E-01 2.748295019158E+03
 3.588276039509E+01 6.034224041942E+01 -7.004063427340E-01 -6.776863291423E+01 8.375435004097E-01 6.364879921737E-01 1.711180606187E-02 -1.358019840080E-02 1.013821589387E-02 -1.648592166009E-02 2.391639588654E-02 -5.135465906589E-02 1.612486837244E-02 6.263061776031E-03 -1.509293864318E-01 -4.361580676627E+02 -7.157856610217E+02 8.555025200653E+00 -5.471461439336E-02 -1.591565014047E-03 8.842407890458E-02 -9.351342155798E-02 -5.460387452911E-02 9.660852432051E-02 4.757204296718E-03 1.021277980095E-02 2.164374143122E-01 -1.722206205625E-02 2.316614738922E-02 6.929943060177E-02 -3.351847283467E+01 5.814558535690E+01 1.293243407447E-01 -2.572154877992E-01 5.783914148953E-01 -6.606388192590E-01 2.708573281109E+01 2.799477393614E+03
 -1.717514357236E-01 -3.437288854985E-02 9.857244704785E+00 -1.201357776123E-02 1.684145832822E-02 8.775431811155E+00 -8.899037779087E-02 3.677469528735E-02 -1.015561488149E-01 -2.817096926963E-02 -1.754814117169E-02 2.655682645281E-02 3.700767967064E-02 5.324161781047E-02 1.408314171295E-02 1.653733248743E+01 8.521509431929E+00 -8.224916603901E+01 8.878940678033E-02 1.138663739648E-02 4.590777361112E+00 8.990000665897E-02 5.729962956092E-03 4.587011360850E+00 7.536438569579E-03 -1.135510200483E-01 -1.798343233071E-01 -7.576605247217E-02 -1.694321282844E-02 1.432723732312E-01 1.081206157974E+00 -1.078540175693E+00 9.323105266219E+00 5.849935091304E-02 1.005545360358E-01 4.967802469516E-01 -3.570302537838E+01 -9.356193387768E+00 1.899587753930E+02
 -3.086313262430E+00 -8.139613148161E-01 3.319455081546E-01 -2.502574524368E+01 -3.061040781867E+01 1.083831531322E+00 -1.401086027769E+00 -1.187067088327E-01 4.802554985560E-01 -6.594388734617E-01 -1.764590355820E-01 3.855502578201E-01 -7.724522449200E-01 5.288139680791E-02 7.047320457646E-01 3.955225677900E+00 3.341062476177E-01 -5.666453045565E-01 2.357969086327E+00 7.196293281603E-01 -4.373089954322E-01 1.935264995023E+00 1.120697479170E+00 -7.979109466247E-01 3.335203474212E-01 7.550222116562E-01 -2.102763032907E-01 7.344651485268E-01 -1.245703240797E+00 -8.509216700329E-01 1.770042259670E+01 -7.122211807377E+01 1.902950862369E+00 -4.107846129616E+01 1.248877351373E+01 -5.938962700499E-01 3.439376685897E+01 6.372705952025E+01 -1.018501087198E+00 2.761480550703E+03
 2.380250594081E-01 -1.729266123694E-01 -2.755772349787E-01 3.419357717446E+01 5.699587297542E+01 -1.358212644536E+00 1.378748573778E-01 2.691278191805E-02 -2.111812471541E-01 -5.218888202510E-02 4.698098930901E-02 -5.130666841911E-02 -1.348167285774E-01 -2.184650875131E-02 -2.211072327456E-01 1.309130803703E-01 -3.051573276322E-01 -1.715291396078E-01 3.098853492143E-02 5.106017183364E-02 1.621626398200E-01 4.186406377890E-01 3.279079850039E-02 3.989019166566E-01 1.502121924196E-03 4.093097863621E-02 -1.660400036695E-01 1.933056843105E-01 -6.391317132003E-02 4.995242585558E-01 -2.589436699032E+00 1.418114110187E+00 -1.138454259589E+00 -4.066510635161E+01 7.392468022349E+01 2.287471914303E+00 -9.734158436616E-01 -3.086130100485E-01 5.735818565166E-01 1.613570549657E+01 2.706905822401E+03
 -2.754355905415E-01 -1.137235296252E-02 -1.527175353291E+00 -3.833593725697E-01 -2.758487275222E-01 6.418392706806E+00 -2.612175233677E-01 -1.526107697579E-01 -8.015433604909E-01 -1.926460573936E-01 -1.686816481630E-01 -2.208775534528E-01 -2.310239280192E-01 -7.009124098462E-02 -1.595702518528E+00 9.580938137843E-02 1.222436909573E-01 -8.613568561418E+00 2.796468270262E-01 2.869918924973E-01 3.532496766737E-01 3.221736418015E-01 1.000637896023E-01 5.739124478958E+00 2.027041776233E-01 1.239309777193E-01 1.063898763059E+00 2.849523277108E-01 7.973639625728E-03 2.993062935505E+00 -1.232674458630E+00 -5.137647783352E-01 8.564424738991E+00 -1.088770024634E+00 -2.557875445210E+00 1.438757596696E+01 -8.616221366337E-01 -8.363888658321E-01 8.946707203312E+00 -5.051912277384E+01 -1.996169763139E+01 1.868207851216E+02
 1.581583464300E+01 2.987392692649E+00 -5.342856539914E+00 2.437030486475E+01 -5.532198867868E+00 -5.667744859146E+00 6.982702884981E+00 1.017311651624E+00 -3.341304397374E+00 2.565124190466E+00 1.369720797740E+00 -2.932562086110E+00 4.057801496142E+00 6.082726246364E-01 -8.161661921217E+00 -1.937091728528E+01 3.928809328304E+00 2.398044535064E+00 -1.185996578960E+01 -3.503455153883E+00 2.383877188933E+00 -9.793141930880E+00 -4.939879402450E+00 7.381611259129E+00 -2.037665391703E+00 -3.779582734250E+00 4.640932220434E+00 -4.065410487483E+00 5.627147661523E+00 1.084913025542E+01 -1.018226039996E+03 3.826953459581E+02 2.633415754513E+01 -4.203130124142E+02 1.137805445469E+02 9.993621680925E+00 2.429958807504E+01 -2.114043270744E+00 -2.066020768483E-01 8.318407495879E+01 4.522477383024E+00 6.871688007540E+00 2.608228138438E+03
 9.155674719996E+00 2.195031259805E+00 -2.328216787320E+00 1.612979167490E+01 -4.375745534560E+00 -2.629321114629E+00 3.878694282263E+00 1.054018004428E+00 -1.669317845671E+00 2.180562284002E+00 8.576048926917E-01 -1.286224167122E+00 2.647103625534E+00 8.371927142405E-01 -3.472940481472E+00 -1.225233767661E+01 1.618244572281E+00 1.093876133989E+00 -6.930108963621E+00 -2.684609716437E+00 1.226249901531E+00 -6.179239385057E+00 -2.914528081938E+00 3.612826289764E+00 -1.245436306943E+00 -3.003269352667E+00 2.080308420395E+00 -2.863307833903E+00 3.059086055396E+00 4.491192716915E+00 4.401212092546E+02 -7.048267344260E+02 -1.378152195375E+01 3.092008480981E+01 -1.349909775077E+03 1.694610326583E+01 1.425257206178E+01 -4.747758849579E-01 4.117925098891E-01 5.146969913792E+01 1.339567394209E+00 2.920153529113E+00 -1.034529366634E+01 2.603021939810E+03
 -1.617211397978E+00 -6.236728512881E-01 -2.449083800395E+00 -2.595116113799E+00 7.103757089012E-02 -3.318167577378E+00 -8.814077120759E-01 5.815833977835E-02 -9.638472535134E-01 -3.014239148316E-01 -3.160858239680E-01 -5.838828237480E-01 -6.133329128291E-01 5.547710385472E-02 -2.740033713507E+00 2.109004192450E+00 6.101920756696E-01 1.455882359053E-01 1.415578811949E+00 6.267923595603E-01 4.220075248862E-01 9.682356448647E-01 5.581155108032E-01 2.488555430176E+00 1.580769277715E-01 2.788240644270E-01 2.998590295531E+00 4.759948861650E-01 -8.450290036784E-01 4.149069800174E+00 2.055569225689E+01 -1.842152717545E+01 -9.791352337339E+01 4.096825969874E+00 4.288394480231E+00 -8.175041551616E+01 -2.188458013437E+00 -1.122769656004E+00 4.555407356600E+00 -9.738578857671E+00 -4.979131751150E-01 -6.645594039482E+00 -4.658357792196E+01 -2.304387822881E+01 3.062777904065E+02
 1.952801522818E+00 5.366285468975E-01 4.981942190083E-02 3.798762184229E+00 -4.587077069198E-01 -1.029715849733E-01 8.060880566822E-01 -5.459305544775E-02 -7.079478948617E-02 3.655479922064E-01 4.597396100941E-02 -6.023392139417E-03 4.598359677956E-01 7.770663199958E-02 -1.958593063883E-01 -2.152136471959E+01 3.391215050708E+01 5.153047168772E-01 -1.405233056615E+00 -4.483892676136E-01 4.242907089255E-02 -1.062679269250E+00 -7.717205005270E-01 4.086321096745E-02 -9.926943600494E-02 -3.800939086764E-01 -4.791053338247E-02 -3.542622724609E-01 8.448591620589E-01 2.655456221040E-01 -1.277044404806E+03 -4.642064332559E+02 2.840670589283E+01 1.074226838212E+01 1.816572723897E+01 -3.466235617516E-02 -1.145859398282E+03 4.175818128302E+02 1.499968697007E+01 -4.504643540550E+02 -1.151119098617E+01 6.779093312276E+00 -6.856211135815E+01 -6.394359346589E+01 8.191802348284E+00 2.778584465415E+03
 2.270175050669E-01 8.840646918193E-02 2.632485201943E-01 1.765520997198E+00 -5.144268547133E-01 1.127600345249E-01 1.782585329500E-01 -1.174169218707E-01 -3.041063631097E-03 2.163552954242E-01 -1.489393953375E-01 4.956975451085E-02 1.391538694086E-01 -1.338611691009E-01 4.322015491425E-01 -3.276269206970E+01 5.695687886905E+01 2.904790423500E-01 -3.429765931927E-01 3.504537402032E-03 -5.419137317624E-02 -5.331683533506E-01 -1.507570591835E-01 -1.822753761758E-01 -9.870209569696E-02 -1.350418092731E-01 -2.851210064216E-01 -1.796207713255E-01 2.594249600358E-01 -5.234390047607E-01 -4.554391132849E+02 -7.254825642828E+02 1.195362895658E+01 5.140927071010E+00 4.759234049299E+00 -2.215096561439E-01 4.139830815156E+02 -7.084953566014E+02 -3.396009728821E+00 1.057942132109E-01 -1.432035569560E+03 1.018644602283E+01 1.899713302704E+01 4.936459383884E+01 3.522097289811E+00 5.091233049760E+01 2.752949592620E+03
 1.215271039428E-01 2.418516097903E-02 5.661163907391E+00 8.818719345806E-02 4.396730236315E-02 -7.376182790832E+00 1.739914535666E-01 2.927766794018E-02 6.260622882770E-01 8.665584610369E-02 1.567832708361E-01 2.175970596258E-01 1.117201191665E-01 3.289298369170E-02 1.275455047972E+00 4.348287312290E-01 -8.638860488355E-01 8.250755028461E+00 -1.056344827888E-01 -1.927535604306E-01 -2.907767797027E-01 -1.200271892030E-01 -1.051957198675E-01 -1.123992214977E+00 -1.032642409546E-01 -3.138987050992E-02 -9.656332821318E-01 -1.188535997476E-01 -1.695300059049E-02 -2.278244452450E+00 2.926170811666E+01 1.378912053802E+01 -8.125343757492E+01 1.479171096203E+00 -2.049738482701E-01 -1.229179610252E+01 1.601585433261E+01 -2.898916476595E+00 -7.958116754081E+01 7.839994603044E+00 1.075987617079E+01 -8.204747636667E+01 -2.394732779562E+00 1.704316035356E-01 5.883727683007E+00 -5.029836225416E+01 -1.986243226217E+01 1.898764083775E+02
 3.937554129274E+00 8.673369873652E-01 -1.284827395578E+00 6.971589448493E+00 -1.638247048774E+00 -1.324383152201E+00 1.750379280228E+00 3.724690937359E-01 -1.022168692651E+00 7.919422451611E-01 4.495384494890E-01 -8.071715524230E-01 1.082689338351E+00 1.035892959323E-01 -2.004777211244E+00 -5.141087742296E+00 6.826323818634E-01 6.802070867006E-01 -3.003466944445E+00 -1.016924197606E+00 7.638168521027E-01 -2.764665749590E+00 -1.474151130669E+00 2.091936536028E+00 -5.174621759040E-01 -1.211483065574E+00 1.073067231052E+00 -1.176801700705E+00 1.407974701598E+00 2.749863994867E+00 2.772064951860E+01 3.576262591495E+00 -3.208622222642E+00 -1.537339171250E+03 -5.255066814711E+02 4.566215422645E+01 5.877050741887E+00 -8.881610713974E-02 2.333035211246E-01 -1.208482357550E+03 4.154115414378E+02 2.247644492868E+01 -5.839924074982E+01 -6.392901372464E+01 1.101116561520E+01 2.448689287466E+01 -5.182121947968E+00 -2.056448662636E+00 3.056761007487E+03
 8.276534159374E-01 3.225087448626E-01 -6.009523393374E-01 1.569166252779E+00 -1.605030787086E-01 -7.766055111158E-01 3.215022148245E-01 1.103089994624E-01 -2.931527102576E-01 1.934854942622E-01 4.695051697150E-02 -2.786403001579E-01 2.599346259228E-01 9.190614170497E-02 -8.417614549653E-01 -1.051230760748E+00 1.220386222917E-01 1.874831026480E-01 -6.924582913461E-01 -2.560672078569E-01 2.133178290605E-01 -7.571330798688E-01 -2.867772759113E-01 7.827203722513E-01 -1.226961796707E-01 -2.468962031171E-01 9.268023095295E-01 -3.003198853979E-01 3.117687859584E-01 9.616874083013E-01 6.973513277417E+00 -3.539861737098E+00 3.624408160266E-01 -5.752031448325E+02 -8.782067762482E+02 2.266962606839E+01 1.219306012149E+00 -4.574205511619E-01 2.916714729275E-02 4.072047196994E+02 -7.211424519413E+02 -9.297974277206E-01 -1.087468939765E+02 -8.118914722547E+00 5.436980230498E+00 6.563309505051E+01 -1.861950302060E-01 -2.310811121687E+00 1.371818414898E+02 2.550686570521E+03
 4.644256918303E-02 2.187740906383E-02 -1.056064988255E+00 -1.431769424132E-01 -7.486010345179E-02 3.940264129256E+00 1.495262689127E-01 1.650957738808E-02 -2.762785584997E-01 9.786360303996E-04 -1.831076455726E-02 8.575730846645E-02 3.329528044043E-02 3.719985950181E-02 -1.284630110056E+00 4.137288518375E-02 1.925312808637E-02 1.534551000858E-01 -1.055084101843E-01 2.884218273849E-02 3.623419394080E-02 1.620454385208E-01 3.618062980842E-02 3.297496899167E-01 -7.672901791005E-02 9.904496033192E-02 -7.005950765104E-01 4.703479895533E-02 5.724619079428E-02 2.996470451289E+00 -1.350061326634E+00 4.104488879024E-01 -6.650059505405E+00 4.296379401762E+01 2.138031388932E+01 -6.918341662359E+01 7.460515870699E-02 1.476822534018E-01 4.088252909877E+00 2.101241127995E+01 -2.621408455752E+00 -7.535562754720E+01 4.665036793571E+00 5.879737982559E-01 9.669404374045E+00 -4.633356092041E-01 -6.278617406661E-01 9.705082735364E+00 -7.066015491725E+01 -3.022719003788E+01 1.552889022724E+02
 2.024348633898E+00 6.379411667527E-01 -7.777022819527E-02 -1.191706938507E+03 4.357492256340E+02 8.936975517951E+00 9.420044314599E-01 1.992860998253E-01 -7.019656409128E-02 6.814342730612E-01 2.070773617930E-01 -2.907893960076E-02 6.916657694784E-01 1.699928210628E-01 -2.693630389124E-01 3.725371521337E+01 -2.160250305903E-01 -2.530047747893E-01 -1.764414667530E+00 -8.178433609604E-01 1.574308277509E-01 -2.158655054572E+01 3.458580582582E+01 2.502164222334E-01 -2.550436945150E-01 -6.341041672472E-01 1.083641138460E-01 -6.828229112180E-01 9.500210253627E-01 1.231567273138E-01 1.367714509572E+01 -1.951954258038E+00 -5.879634315060E-01 1.103693753613E+01 1.981464363555E+01 -2.451306189989E-01 3.855535616181E+00 -6.093494300386E-02 7.251631355069E-02 -1.188977090268E+03 -4.183917057926E+02 2.302374420942E+01 -5.596196516616E+01 -3.360436096497E+01 6.184406106904E+00 2.798887137686E+01 -2.979703055935E+00 -5.275915445584E-01 -3.310308513029E+01 -3.629115767453E+01 9.689825272153E-01 2.753541920215E+03
 6.569557731507E-01 1.854687498059E-02 1.889197177312E-01 4.443361411280E+02 -7.380061844288E+02 2.089533488083E+00 2.563341931919E-01 7.411829729210E-02 -2.925465694564E-02 1.479767987954E-01 2.679101878583E-01 -4.450720535484E-02 3.860696404985E-01 1.343268566684E-01 -1.196556588786E-02 6.497357231194E+01 4.374647024267E-01 -4.931645523607E-01 -5.809415387557E-01 -2.937913796803E-01 4.425725082023E-02 -3.385703237488E+01 5.810095408465E+01 1.850146803850E-02 -9.972925090319E-02 -4.263846563519E-01 1.001534619800E-01 -5.320368963518E-01 3.087346183143E-01 -1.390688638459E-01 6.839523155034E+00 -8.106301272477E-01 -4.192642955453E-01 5.445943850314E+00 9.609470327636E+00 -5.445009050913E-01 2.628507803939E+00 -6.090207588233E-01 -3.202768253954E-01 -4.131020449894E+02 -6.874508468410E+02 1.353206227151E+01 -2.754618851700E+01 -1.522572697374E+01 2.548620748044E+00 -6.955403857342E+01 -8.444292391983E-01 1.327400851772E+00 2.491809655448E+01 5.674511263702E+01 -1.042801186952E+00 2.896001338631E+01 2.797219194940E+03
 -2.014999709486E-01 8.612177631422E-02 4.049980378605E+00 8.782959935312E+00 2.438383306411E+00 -8.263510672834E+01 -1.324619428523E-01 -7.003579768968E-02 -5.663842075503E-02 -6.098964310405E-02 7.956165661066E-02 4.443831576533E+00 -1.153326070394E-01 -3.478832575231E-02 -6.905007893580E-01 -4.857195674389E-01 -1.387099371873E-01 9.083819402946E+00 1.854560043766E-01 8.910721622142E-02 -1.081124445703E-02 5.839090431092E-01 -8.832919396689E-01 9.637806136349E+00 6.880437894253E-02 1.661753958646E-01 1.043289706756E+00 1.295748946457E-01 -8.328413994504E-02 7.691423715969E-01 -6.628905339689E-01 -3.206043041930E-01 3.581098903567E+00 -1.566628863509E+00 -1.077848230427E+00 5.278803429896E+00 -6.435619737820E-01 -2.879775809432E-02 -9.008761305296E+00 2.296341922331E+01 1.292580187700E+01 -8.123087690363E+01 5.100410727667E+00 1.578179015096E+00 1.606672772655E+00 -1.117082286308E-02 2.970334510962E-02 7.316146028216E+00 1.452332817148E+00 1.061257054510E+00 1.021842701995E+01 -3.684493679012E+01 -3.741531072911E+01 1.878116393918E+02