#BIOSYM hessian 1
@Type: Hessian Update
@Units
 distance: 	A
 energy: 	Kcal/Mol
#header
@natom 69

#label
C1      C2      C3      C4      C5      C6      C7      C8      C9      C10     C11     C12     C13     C14     C15     C16     C17     C18     C19     C20     C21     C22     C23     H24     C25     C26     C27     C28     C29     C30     C31     C32     C33     C34     C35     C36     C37     C38     C39     C40     C41     C42     C43     C44     C45     C46     C47     C48     C49     H50     H51     H52     H53     H54     H55     H56     C57     H58     H59     H60     H61     H62     H63     H64     H65     H66     O67     O68     H69

#element
C  C  C  C  C  C  C  C  C  C  C  C  C  C  C  C  C  C  C  C  C  C  C  H  C  C  C  C  C  C  C  C  C  C  C  C  C  C  C  C  C  C  C  C  C  C  C  C  C  H  H  H  H  H  H  H  C  H  H  H  H  H  H  H  H  H  O  O  H 

#matrix
207
 2.784232319166E+03
 -2.323709750643E+01 2.820313431425E+03
 0.000000000000E+00 0.000000000000E+00 0.000000000000E+00
 3.955960529828E+01 6.726933216358E+01 0.000000000000E+00 2.791636780140E+03
 -2.539158573969E-01 -4.367381110593E-01 0.000000000000E+00 -2.279044762112E+01 2.767530645681E+03
 0.000000000000E+00 0.000000000000E+00 0.000000000000E+00 0.000000000000E+00 0.000000000000E+00 0.000000000000E+00
 -1.971383878299E+01 3.458105808471E+01 0.000000000000E+00 3.099621199366E-03 1.037168326180E-03 0.000000000000E+00 2.815610887039E+03
 -3.392449153427E+01 5.953655902138E+01 0.000000000000E+00 -4.185589439493E-03 2.254323400685E-04 0.000000000000E+00 -3.142997490169E+01 2.821506065666E+03
 0.000000000000E+00 0.000000000000E+00 0.000000000000E+00 0.000000000000E+00 0.000000000000E+00 0.000000000000E+00 0.000000000000E+00 0.000000000000E+00 0.000000000000E+00
 3.905357899741E+01 -6.850370559088E+01 0.000000000000E+00 -1.955784810604E+01 3.491970457397E+01 0.000000000000E+00 4.194851379494E+01 7.216100965904E+01 0.000000000000E+00 2.789949904971E+03
 -2.898114373045E-01 5.142452006222E-01 0.000000000000E+00 -3.318425139511E+01 5.925181978438E+01 0.000000000000E+00 -3.233968608773E-01 -5.540507433745E-01 0.000000000000E+00 -1.990500895174E+01 2.834698580888E+03
 0.000000000000E+00 0.000000000000E+00 0.000000000000E+00 0.000000000000E+00 0.000000000000E+00 0.000000000000E+00 0.000000000000E+00 0.000000000000E+00 0.000000000000E+00 0.000000000000E+00 0.000000000000E+00 0.000000000000E+00
 1.779205502960E-03 -4.126325751868E-03 0.000000000000E+00 7.808196417439E-05 -1.486073264978E-03 0.000000000000E+00 4.211326441122E+01 -7.342526048493E+01 0.000000000000E+00 -2.155780034630E+01 3.807841466346E+01 0.000000000000E+00 2.636557538914E+03
 1.280159646569E-03 -3.766908992672E-03 0.000000000000E+00 8.538551680861E-04 -1.671335956272E-03 0.000000000000E+00 4.096644149430E-01 -7.043414831510E-01 0.000000000000E+00 -3.560683115261E+01 6.290700641189E+01 0.000000000000E+00 -2.228675376815E+02 2.899177429279E+03
 0.000000000000E+00 0.000000000000E+00 0.000000000000E+00 0.000000000000E+00 0.000000000000E+00 0.000000000000E+00 0.000000000000E+00 0.000000000000E+00 0.000000000000E+00 0.000000000000E+00 0.000000000000E+00 0.000000000000E+00 0.000000000000E+00 0.000000000000E+00 0.000000000000E+00
 -1.230894066462E+03 4.454470633909E+02 0.000000000000E+00 -4.647151744124E+02 -7.140387575677E+00 0.000000000000E+00 -2.109705654877E-02 1.728012810514E-03 0.000000000000E+00 1.341686318518E-03 -4.191322652313E-03 0.000000000000E+00 -2.215106527345E-03 -3.187532024156E-03 0.000000000000E+00 2.820341190287E+03
 4.402623853256E+02 -7.382100222938E+02 0.000000000000E+00 -6.145799585460E+00 -1.433726587105E+03 0.000000000000E+00 6.528110216575E-03 -6.740346459404E-03 0.000000000000E+00 -1.144985570225E-04 -6.841648618540E-04 0.000000000000E+00 1.733891081162E-03 3.236639168812E-03 0.000000000000E+00 -1.128399751423E+00 2.779659216231E+03
 0.000000000000E+00 0.000000000000E+00 0.000000000000E+00 0.000000000000E+00 0.000000000000E+00 0.000000000000E+00 0.000000000000E+00 0.000000000000E+00 0.000000000000E+00 0.000000000000E+00 0.000000000000E+00 0.000000000000E+00 0.000000000000E+00 0.000000000000E+00 0.000000000000E+00 0.000000000000E+00 0.000000000000E+00 0.000000000000E+00
 -1.192732697330E+03 -4.134380234968E+02 0.000000000000E+00 -1.157436413963E-03 3.431786321927E-03 0.000000000000E+00 -1.264643442438E+03 4.472521826755E+02 0.000000000000E+00 -4.861124701980E+02 -9.843835987974E+00 0.000000000000E+00 -2.487501383838E-03 -4.903493967911E-03 0.000000000000E+00 -1.951889583261E+01 -3.320587727219E+01 0.000000000000E+00 2.822689758068E+03
 -4.129152590082E+02 -7.037173620710E+02 0.000000000000E+00 3.780663844128E-03 -3.229528731655E-04 0.000000000000E+00 4.491066676875E+02 -7.469815305397E+02 0.000000000000E+00 -1.195803969611E+01 -1.514673900364E+03 0.000000000000E+00 -1.254442818301E-02 -7.980739447648E-05 0.000000000000E+00 3.425792999829E+01 5.824058595455E+01 0.000000000000E+00 -2.668169309902E+01 2.847373242891E+03
 0.000000000000E+00 0.000000000000E+00 0.000000000000E+00 0.000000000000E+00 0.000000000000E+00 0.000000000000E+00 0.000000000000E+00 0.000000000000E+00 0.000000000000E+00 0.000000000000E+00 0.000000000000E+00 0.000000000000E+00 0.000000000000E+00 0.000000000000E+00 0.000000000000E+00 0.000000000000E+00 0.000000000000E+00 0.000000000000E+00 0.000000000000E+00 0.000000000000E+00 0.000000000000E+00
 -6.664944556364E-03 4.418599137689E-03 0.000000000000E+00 -1.220234764436E+03 -4.204548872940E+02 0.000000000000E+00 6.445420198654E-03 2.665302628047E-03 0.000000000000E+00 -1.226974303915E+03 4.401346797097E+02 0.000000000000E+00 2.008067391902E-04 8.690799038888E-04 0.000000000000E+00 3.736485375677E+01 -2.415940671908E-01 0.000000000000E+00 4.142477605340E+01 -3.185611111633E-01 0.000000000000E+00 2.808843707571E+03
 -4.201715819920E-04 4.004171672272E-03 0.000000000000E+00 -4.228730079796E+02 -7.062657191452E+02 0.000000000000E+00 2.230714670564E-03 5.149694959776E-03 0.000000000000E+00 4.383843759176E+02 -7.348180219878E+02 0.000000000000E+00 1.167170226248E-03 3.126897047691E-04 0.000000000000E+00 -6.669741580994E+01 4.262850588040E-01 0.000000000000E+00 7.028117944467E+01 -5.288078673873E-01 0.000000000000E+00 -1.028961996969E+00 2.808066069063E+03
 0.000000000000E+00 0.000000000000E+00 0.000000000000E+00 0.000000000000E+00 0.000000000000E+00 0.000000000000E+00 0.000000000000E+00 0.000000000000E+00 0.000000000000E+00 0.000000000000E+00 0.000000000000E+00 0.000000000000E+00 0.000000000000E+00 0.000000000000E+00 0.000000000000E+00 0.000000000000E+00 0.000000000000E+00 0.000000000000E+00 0.000000000000E+00 0.000000000000E+00 0.000000000000E+00 0.000000000000E+00 0.000000000000E+00 0.000000000000E+00
 -2.757255705218E-03 7.213323438307E-04 0.000000000000E+00 1.548172615889E-03 -4.830213988503E-04 0.000000000000E+00 -1.197036961476E+03 -4.089736794091E+02 0.000000000000E+00 -1.450360334137E-03 1.367575577388E-02 0.000000000000E+00 -5.221907530379E+02 9.923348112856E+00 0.000000000000E+00 -7.789138080495E-04 3.848101001025E-03 0.000000000000E+00 -1.986170032293E+01 -3.416910590088E+01 0.000000000000E+00 -3.652315776069E-03 -1.788890223834E-03 0.000000000000E+00 2.775952702916E+03
 -2.291194064092E-03 -1.485133801297E-03 0.000000000000E+00 1.517759442732E-03 1.205379284453E-03 0.000000000000E+00 -4.178072878414E+02 -7.064558626921E+02 0.000000000000E+00 1.050278937785E-02 8.311881136513E-03 0.000000000000E+00 1.165436593901E+01 -1.636161933682E+03 0.000000000000E+00 -8.657636760931E-04 4.641911117599E-04 0.000000000000E+00 3.463234321420E+01 5.961387460175E+01 0.000000000000E+00 9.324827806264E-05 -3.315581823992E-03 0.000000000000E+00 -3.058086714248E+01 2.960316402229E+03
 0.000000000000E+00 0.000000000000E+00 0.000000000000E+00 0.000000000000E+00 0.000000000000E+00 0.000000000000E+00 0.000000000000E+00 0.000000000000E+00 0.000000000000E+00 0.000000000000E+00 0.000000000000E+00 0.000000000000E+00 0.000000000000E+00 0.000000000000E+00 0.000000000000E+00 0.000000000000E+00 0.000000000000E+00 0.000000000000E+00 0.000000000000E+00 0.000000000000E+00 0.000000000000E+00 0.000000000000E+00 0.000000000000E+00 0.000000000000E+00 0.000000000000E+00 0.000000000000E+00 0.000000000000E+00
 4.706523165780E-03 -5.936386977898E-03 0.000000000000E+00 1.012706566191E-05 -7.972361641347E-04 0.000000000000E+00 -2.618419989033E-02 -7.660580860685E-03 0.000000000000E+00 -1.194815291393E+03 -4.176807567513E+02 0.000000000000E+00 -1.336213015897E+03 4.942007212067E+02 0.000000000000E+00 -5.900382304328E-03 8.098864724599E-04 0.000000000000E+00 3.891057532930E+01 -2.763219500825E-01 0.000000000000E+00 -1.939793133837E+01 -3.291393767690E+01 0.000000000000E+00 4.930165948048E+01 4.644708303181E-01 0.000000000000E+00 2.881904991162E+03
 -2.219957885966E-03 3.283550346194E-03 0.000000000000E+00 -1.788923374242E-03 -9.405219272797E-04 0.000000000000E+00 4.431572027858E-05 2.018664263778E-02 0.000000000000E+00 -4.091816402145E+02 -7.054124252645E+02 0.000000000000E+00 4.922700839471E+02 -8.203180950739E+02 0.000000000000E+00 6.570538342658E-03 -3.742046915641E-03 0.000000000000E+00 -6.872112643089E+01 5.008368504045E-01 0.000000000000E+00 3.427272694906E+01 5.815474242092E+01 0.000000000000E+00 8.140593432792E+01 7.595599862179E-01 0.000000000000E+00 -9.626620177089E+01 2.845946941156E+03
 0.000000000000E+00 0.000000000000E+00 0.000000000000E+00 0.000000000000E+00 0.000000000000E+00 0.000000000000E+00 0.000000000000E+00 0.000000000000E+00 0.000000000000E+00 0.000000000000E+00 0.000000000000E+00 0.000000000000E+00 0.000000000000E+00 0.000000000000E+00 0.000000000000E+00 0.000000000000E+00 0.000000000000E+00 0.000000000000E+00 0.000000000000E+00 0.000000000000E+00 0.000000000000E+00 0.000000000000E+00 0.000000000000E+00 0.000000000000E+00 0.000000000000E+00 0.000000000000E+00 0.000000000000E+00 0.000000000000E+00 0.000000000000E+00 0.000000000000E+00
 5.426703903503E-03 -8.370608068406E-03 0.000000000000E+00 3.349409572322E-04 8.421318797206E-04 0.000000000000E+00 -3.106420424256E-03 -2.813564980916E-04 0.000000000000E+00 3.879868758716E-05 -5.787461434847E-04 0.000000000000E+00 -1.610169429192E-03 -1.683013020652E-03 0.000000000000E+00 -3.338832931848E-03 3.156881288396E-03 0.000000000000E+00 3.214647965501E-03 2.968382105043E-03 0.000000000000E+00 1.633620495563E-03 9.392078689267E-04 0.000000000000E+00 5.640856346773E-04 1.390305217854E-03 0.000000000000E+00 -7.324678919663E-04 1.047913058928E-03 0.000000000000E+00 2.811813382010E+03
 7.106868969361E-03 -1.427052171675E-02 0.000000000000E+00 -2.692251154844E-03 -1.789358935507E-03 0.000000000000E+00 -6.550225530225E-03 6.705785670730E-04 0.000000000000E+00 -3.609522139167E-05 -1.060730709043E-03 0.000000000000E+00 -1.430544715080E-03 -2.383148571249E-03 0.000000000000E+00 -8.130647092715E-03 1.149862053510E-02 0.000000000000E+00 4.845115277541E-03 2.241131479947E-03 0.000000000000E+00 2.893337878051E-03 1.642809830963E-03 0.000000000000E+00 -2.140637503410E-03 8.797872426797E-04 0.000000000000E+00 -1.305606102772E-03 1.967685012463E-03 0.000000000000E+00 2.578158194016E+00 2.803292784493E+03
 0.000000000000E+00 0.000000000000E+00 0.000000000000E+00 0.000000000000E+00 0.000000000000E+00 0.000000000000E+00 0.000000000000E+00 0.000000000000E+00 0.000000000000E+00 0.000000000000E+00 0.000000000000E+00 0.000000000000E+00 0.000000000000E+00 0.000000000000E+00 0.000000000000E+00 0.000000000000E+00 0.000000000000E+00 0.000000000000E+00 0.000000000000E+00 0.000000000000E+00 0.000000000000E+00 0.000000000000E+00 0.000000000000E+00 0.000000000000E+00 0.000000000000E+00 0.000000000000E+00 0.000000000000E+00 0.000000000000E+00 0.000000000000E+00 0.000000000000E+00 0.000000000000E+00 0.000000000000E+00 0.000000000000E+00
 4.550721426714E-03 -6.865350550619E-03 0.000000000000E+00 1.899121830294E-03 -2.059830899004E-03 0.000000000000E+00 -4.512548232592E-03 -6.041543469446E-04 0.000000000000E+00 4.469644205813E-04 -6.984307843941E-04 0.000000000000E+00 -6.752919725646E-04 -1.196207622218E-03 0.000000000000E+00 -8.502854591650E-03 1.611839627519E-03 0.000000000000E+00 2.914689123832E-03 1.868673468459E-03 0.000000000000E+00 3.719310788178E-04 1.996990158746E-03 0.000000000000E+00 8.977390387828E-04 6.371961280621E-04 0.000000000000E+00 -2.602918610140E-03 8.751891013287E-04 0.000000000000E+00 4.145360078186E+01 7.184869491685E+01 0.000000000000E+00 2.781122411162E+03
 5.519763899340E-05 8.357115807984E-04 0.000000000000E+00 -3.823263167264E-04 1.250925437661E-03 0.000000000000E+00 1.136412210278E-03 5.909208981142E-04 0.000000000000E+00 2.758579426035E-05 4.317018169834E-04 0.000000000000E+00 2.026392334290E-04 -3.263310465929E-04 0.000000000000E+00 6.220222689897E-04 -6.350045447719E-04 0.000000000000E+00 -4.876865391175E-04 1.962679395369E-04 0.000000000000E+00 -7.669770298809E-04 -2.176162848286E-04 0.000000000000E+00 -3.895409739301E-04 -3.769038647733E-04 0.000000000000E+00 1.171598677587E-05 -5.133179989918E-04 0.000000000000E+00 -9.311211945963E-01 -1.622539647683E+00 0.000000000000E+00 2.780168063617E+02 2.860169851293E+03
 0.000000000000E+00 0.000000000000E+00 0.000000000000E+00 0.000000000000E+00 0.000000000000E+00 0.000000000000E+00 0.000000000000E+00 0.000000000000E+00 0.000000000000E+00 0.000000000000E+00 0.000000000000E+00 0.000000000000E+00 0.000000000000E+00 0.000000000000E+00 0.000000000000E+00 0.000000000000E+00 0.000000000000E+00 0.000000000000E+00 0.000000000000E+00 0.000000000000E+00 0.000000000000E+00 0.000000000000E+00 0.000000000000E+00 0.000000000000E+00 0.000000000000E+00 0.000000000000E+00 0.000000000000E+00 0.000000000000E+00 0.000000000000E+00 0.000000000000E+00 0.000000000000E+00 0.000000000000E+00 0.000000000000E+00 0.000000000000E+00 0.000000000000E+00 0.000000000000E+00
 -2.023784094282E+01 -3.439507503719E+01 0.000000000000E+00 3.855304092632E+01 -2.505884500950E-01 0.000000000000E+00 8.124167194052E-03 3.112850509534E-03 0.000000000000E+00 -1.253227426122E-04 2.828332743501E-03 0.000000000000E+00 3.731073103250E-04 1.214576640883E-03 0.000000000000E+00 -1.244134450745E+03 -4.337097626156E+02 0.000000000000E+00 -5.900681909239E-03 -2.822422266884E-03 0.000000000000E+00 -3.081700956229E-03 -3.197745070181E-03 0.000000000000E+00 -1.179273799562E-03 -4.854250248093E-04 0.000000000000E+00 3.061537333170E-03 -2.610802363674E-03 0.000000000000E+00 -1.942073224181E+01 3.396890076358E+01 0.000000000000E+00 8.694324302416E-04 -7.547530172626E-04 0.000000000000E+00 2.775513527475E+03
 3.563416198548E+01 6.057552446153E+01 0.000000000000E+00 -6.788194481023E+01 4.380973236475E-01 0.000000000000E+00 1.279444259921E-03 5.631893858830E-03 0.000000000000E+00 4.618244877057E-04 5.719350459931E-04 0.000000000000E+00 7.600565922986E-05 -1.742540130318E-03 0.000000000000E+00 -4.384030176509E+02 -7.241327685101E+02 0.000000000000E+00 -5.336381047990E-04 -9.173041979798E-04 0.000000000000E+00 -8.126765060906E-04 1.412709767572E-03 0.000000000000E+00 -3.726051233045E-03 -2.285844495753E-03 0.000000000000E+00 7.423783185554E-05 2.235130204988E-04 0.000000000000E+00 -3.265280332178E+01 5.706669804208E+01 0.000000000000E+00 2.706133426413E-04 2.377078896177E-04 0.000000000000E+00 1.726224254071E+01 2.807273060585E+03
 0.000000000000E+00 0.000000000000E+00 0.000000000000E+00 0.000000000000E+00 0.000000000000E+00 0.000000000000E+00 0.000000000000E+00 0.000000000000E+00 0.000000000000E+00 0.000000000000E+00 0.000000000000E+00 0.000000000000E+00 0.000000000000E+00 0.000000000000E+00 0.000000000000E+00 0.000000000000E+00 0.000000000000E+00 0.000000000000E+00 0.000000000000E+00 0.000000000000E+00 0.000000000000E+00 0.000000000000E+00 0.000000000000E+00 0.000000000000E+00 0.000000000000E+00 0.000000000000E+00 0.000000000000E+00 0.000000000000E+00 0.000000000000E+00 0.000000000000E+00 0.000000000000E+00 0.000000000000E+00 0.000000000000E+00 0.000000000000E+00 0.000000000000E+00 0.000000000000E+00 0.000000000000E+00 0.000000000000E+00 0.000000000000E+00
 -3.550951878153E-03 1.081982983778E-02 0.000000000000E+00 -1.890262231989E+01 -3.149407116170E+01 0.000000000000E+00 8.641446571004E-03 -2.648579090383E-03 0.000000000000E+00 2.337238082137E-04 -6.953918182736E-04 0.000000000000E+00 9.948137808041E-04 8.426738576883E-04 0.000000000000E+00 9.649304042438E-03 -1.443723981414E-02 0.000000000000E+00 -5.306647520398E-03 1.692905397553E-04 0.000000000000E+00 -1.381087190884E-03 -1.214765999888E-03 0.000000000000E+00 2.081843451164E-03 1.329397588486E-03 0.000000000000E+00 2.478471919885E-03 -1.203714176898E-03 0.000000000000E+00 3.969756580737E+01 -6.937092107199E+01 0.000000000000E+00 -2.295825483259E+01 4.017123182463E+01 0.000000000000E+00 3.988130081002E+01 6.705830095894E+01 0.000000000000E+00 2.772749188234E+03
 2.169067364582E-04 9.875679941578E-04 0.000000000000E+00 3.340147476656E+01 5.564161749966E+01 0.000000000000E+00 1.034369942328E-03 1.231871476567E-03 0.000000000000E+00 5.398269183430E-04 -9.797023974302E-04 0.000000000000E+00 7.744891718235E-04 2.331956402877E-04 0.000000000000E+00 -9.253986369230E-03 -1.638362070144E-03 0.000000000000E+00 -1.684495441403E-03 -1.295144753725E-03 0.000000000000E+00 -7.701488026992E-04 7.841321227452E-04 0.000000000000E+00 -1.516275960094E-03 -4.665294893725E-04 0.000000000000E+00 -7.206158634469E-04 -1.415405782480E-04 0.000000000000E+00 -3.104985663846E-02 5.486013614651E-02 0.000000000000E+00 -4.229194771681E+01 7.399023309094E+01 0.000000000000E+00 -2.070766285852E-02 -3.766912416732E-02 0.000000000000E+00 -3.767161667739E+01 2.757373487354E+03
 0.000000000000E+00 0.000000000000E+00 0.000000000000E+00 0.000000000000E+00 0.000000000000E+00 0.000000000000E+00 0.000000000000E+00 0.000000000000E+00 0.000000000000E+00 0.000000000000E+00 0.000000000000E+00 0.000000000000E+00 0.000000000000E+00 0.000000000000E+00 0.000000000000E+00 0.000000000000E+00 0.000000000000E+00 0.000000000000E+00 0.000000000000E+00 0.000000000000E+00 0.000000000000E+00 0.000000000000E+00 0.000000000000E+00 0.000000000000E+00 0.000000000000E+00 0.000000000000E+00 0.000000000000E+00 0.000000000000E+00 0.000000000000E+00 0.000000000000E+00 0.000000000000E+00 0.000000000000E+00 0.000000000000E+00 0.000000000000E+00 0.000000000000E+00 0.000000000000E+00 0.000000000000E+00 0.000000000000E+00 0.000000000000E+00 0.000000000000E+00 0.000000000000E+00 0.000000000000E+00
 -1.303762661191E-03 1.541308421753E-03 0.000000000000E+00 -3.414854523898E-03 1.561518105929E-03 0.000000000000E+00 1.956321776673E-03 -2.213960296673E-04 0.000000000000E+00 -1.496360916131E-03 4.838034777205E-04 0.000000000000E+00 -7.704345934172E-04 -6.665781392278E-05 0.000000000000E+00 5.623784787914E-03 2.542021160340E-03 0.000000000000E+00 1.676133493921E-04 1.024524443749E-03 0.000000000000E+00 1.572420321748E-03 -1.185970359642E-03 0.000000000000E+00 1.917088985926E-04 2.453052127212E-04 0.000000000000E+00 2.384024805320E-03 -2.470082917581E-04 0.000000000000E+00 -1.236448297140E+03 4.331514697229E+02 0.000000000000E+00 -5.071550354388E+02 -1.548670020912E+01 0.000000000000E+00 7.605474087949E-04 -1.692064949523E-03 0.000000000000E+00 -1.898413160690E-03 8.592351281656E-03 0.000000000000E+00 2.842523386781E+03
 -4.109585517451E-04 4.660126690357E-03 0.000000000000E+00 1.099374467213E-03 2.970173071931E-04 0.000000000000E+00 2.283516596901E-03 -1.222774719696E-05 0.000000000000E+00 -2.082614205698E-04 4.741485481030E-04 0.000000000000E+00 4.290527979695E-04 4.620322883963E-04 0.000000000000E+00 2.258545541237E-04 -3.044604829773E-03 0.000000000000E+00 -1.406843727479E-03 2.372080287345E-05 0.000000000000E+00 -1.172197382652E-03 -4.200642759661E-05 0.000000000000E+00 1.035983988427E-03 -5.403103701140E-04 0.000000000000E+00 -9.953109102151E-05 -7.880918795575E-04 0.000000000000E+00 4.353012517538E+02 -7.303658296104E+02 0.000000000000E+00 -2.549708173073E+01 -1.541699840301E+03 0.000000000000E+00 -1.650216772050E-03 5.307679754885E-05 0.000000000000E+00 -7.535527990307E-06 -4.783831273397E-03 0.000000000000E+00 2.970928381020E+01 2.893684264846E+03
 0.000000000000E+00 0.000000000000E+00 0.000000000000E+00 0.000000000000E+00 0.000000000000E+00 0.000000000000E+00 0.000000000000E+00 0.000000000000E+00 0.000000000000E+00 0.000000000000E+00 0.000000000000E+00 0.000000000000E+00 0.000000000000E+00 0.000000000000E+00 0.000000000000E+00 0.000000000000E+00 0.000000000000E+00 0.000000000000E+00 0.000000000000E+00 0.000000000000E+00 0.000000000000E+00 0.000000000000E+00 0.000000000000E+00 0.000000000000E+00 0.000000000000E+00 0.000000000000E+00 0.000000000000E+00 0.000000000000E+00 0.000000000000E+00 0.000000000000E+00 0.000000000000E+00 0.000000000000E+00 0.000000000000E+00 0.000000000000E+00 0.000000000000E+00 0.000000000000E+00 0.000000000000E+00 0.000000000000E+00 0.000000000000E+00 0.000000000000E+00 0.000000000000E+00 0.000000000000E+00 0.000000000000E+00 0.000000000000E+00 0.000000000000E+00
 5.321596475334E-03 -8.191720514346E-03 0.000000000000E+00 -1.923557077461E-03 -6.001498628822E-04 0.000000000000E+00 -4.236188379247E-03 9.905255535268E-04 0.000000000000E+00 9.832098128568E-04 -5.332796501126E-04 0.000000000000E+00 5.655825876074E-05 -1.381523343339E-03 0.000000000000E+00 -1.962707096514E+01 3.456023360818E+01 0.000000000000E+00 3.043761675148E-03 7.843813564579E-04 0.000000000000E+00 8.994456583217E-04 1.952596637847E-03 0.000000000000E+00 -1.558891279424E-03 -3.546343820784E-04 0.000000000000E+00 -1.770807974047E-03 1.477017057560E-03 0.000000000000E+00 -1.221440938659E+03 -4.265069656269E+02 0.000000000000E+00 7.297052884394E-04 -2.458169404618E-03 0.000000000000E+00 -1.174316469197E+03 4.228777869119E+02 0.000000000000E+00 -4.723973227102E+02 -7.785083001439E+00 0.000000000000E+00 -1.968717324870E+01 -3.412027720866E+01 0.000000000000E+00 2.752820310614E+03
 -1.159144382789E-03 2.818210188066E-05 0.000000000000E+00 3.212337819601E-03 2.712558662352E-03 0.000000000000E+00 -2.344875040647E-03 -4.091991131280E-03 0.000000000000E+00 1.582043511143E-05 -7.449724330373E-04 0.000000000000E+00 -2.533932331651E-04 4.212413301774E-04 0.000000000000E+00 -3.298022768822E+01 5.807064705211E+01 0.000000000000E+00 1.146813177361E-03 8.866253882014E-04 0.000000000000E+00 4.657426464890E-04 3.616302299293E-04 0.000000000000E+00 3.392368845717E-03 1.955474197417E-03 0.000000000000E+00 -7.523804966997E-04 6.794236626084E-04 0.000000000000E+00 -4.297938081690E+02 -7.156169659839E+02 0.000000000000E+00 -1.138070118101E-02 3.166510870721E-05 0.000000000000E+00 4.240570391132E+02 -7.147389883084E+02 0.000000000000E+00 1.651116384661E+00 -1.498644852925E+03 0.000000000000E+00 3.441850457241E+01 5.962100018624E+01 0.000000000000E+00 4.445958579836E+00 2.811135983028E+03
 0.000000000000E+00 0.000000000000E+00 0.000000000000E+00 0.000000000000E+00 0.000000000000E+00 0.000000000000E+00 0.000000000000E+00 0.000000000000E+00 0.000000000000E+00 0.000000000000E+00 0.000000000000E+00 0.000000000000E+00 0.000000000000E+00 0.000000000000E+00 0.000000000000E+00 0.000000000000E+00 0.000000000000E+00 0.000000000000E+00 0.000000000000E+00 0.000000000000E+00 0.000000000000E+00 0.000000000000E+00 0.000000000000E+00 0.000000000000E+00 0.000000000000E+00 0.000000000000E+00 0.000000000000E+00 0.000000000000E+00 0.000000000000E+00 0.000000000000E+00 0.000000000000E+00 0.000000000000E+00 0.000000000000E+00 0.000000000000E+00 0.000000000000E+00 0.000000000000E+00 0.000000000000E+00 0.000000000000E+00 0.000000000000E+00 0.000000000000E+00 0.000000000000E+00 0.000000000000E+00 0.000000000000E+00 0.000000000000E+00 0.000000000000E+00 0.000000000000E+00 0.000000000000E+00 0.000000000000E+00
 3.824901351220E-04 -2.412419272372E-03 0.000000000000E+00 -4.031108478837E-05 -8.078815971036E-04 0.000000000000E+00 -2.034950752012E-03 4.699538621633E-04 0.000000000000E+00 2.326728019561E-04 -2.478994910350E-04 0.000000000000E+00 -3.693434875002E-04 8.083236236533E-05 0.000000000000E+00 -3.673299838052E-04 2.054169027955E-03 0.000000000000E+00 9.959585416150E-04 -5.325556451666E-04 0.000000000000E+00 1.008808331336E-03 7.495481363219E-06 0.000000000000E+00 -9.320794814533E-04 -3.182568695884E-05 0.000000000000E+00 1.624972734024E-04 7.255938193796E-04 0.000000000000E+00 7.351816334879E-03 -8.864194116681E-03 0.000000000000E+00 -1.503150103646E+03 -5.295189828242E+02 0.000000000000E+00 1.552865549648E-03 -1.531664626793E-03 0.000000000000E+00 -1.279618839041E+03 4.341266968358E+02 0.000000000000E+00 4.898141649360E+01 -1.104347715567E+00 0.000000000000E+00 3.915827391871E+01 -1.800419208421E-02 0.000000000000E+00 3.072959214977E+03
 9.186107597160E-04 -3.125818392370E-03 0.000000000000E+00 -5.298101892874E-05 -1.220397435768E-03 0.000000000000E+00 -2.496193983488E-03 5.446739997153E-04 0.000000000000E+00 2.695894131405E-04 -6.235168725933E-05 0.000000000000E+00 -5.915957590378E-04 -3.782721180236E-04 0.000000000000E+00 -2.163342017096E-03 2.730653926241E-03 0.000000000000E+00 1.343043071620E-03 4.632737747804E-05 0.000000000000E+00 9.482951029922E-04 4.910730951293E-04 0.000000000000E+00 -6.495644512660E-04 -5.723781836661E-06 0.000000000000E+00 -9.287781909459E-05 7.074669939545E-04 0.000000000000E+00 -2.123198503647E-03 -1.431521887093E-02 0.000000000000E+00 -5.393241285526E+02 -8.679070860476E+02 0.000000000000E+00 2.679954338177E-03 6.666256926894E-04 0.000000000000E+00 4.189064746781E+02 -7.238849070363E+02 0.000000000000E+00 -8.571234785135E+01 1.947572658496E+00 0.000000000000E+00 7.213296566418E+01 -3.794186262217E-02 0.000000000000E+00 9.143791908045E+01 2.539414253726E+03
 0.000000000000E+00 0.000000000000E+00 0.000000000000E+00 0.000000000000E+00 0.000000000000E+00 0.000000000000E+00 0.000000000000E+00 0.000000000000E+00 0.000000000000E+00 0.000000000000E+00 0.000000000000E+00 0.000000000000E+00 0.000000000000E+00 0.000000000000E+00 0.000000000000E+00 0.000000000000E+00 0.000000000000E+00 0.000000000000E+00 0.000000000000E+00 0.000000000000E+00 0.000000000000E+00 0.000000000000E+00 0.000000000000E+00 0.000000000000E+00 0.000000000000E+00 0.000000000000E+00 0.000000000000E+00 0.000000000000E+00 0.000000000000E+00 0.000000000000E+00 0.000000000000E+00 0.000000000000E+00 0.000000000000E+00 0.000000000000E+00 0.000000000000E+00 0.000000000000E+00 0.000000000000E+00 0.000000000000E+00 0.000000000000E+00 0.000000000000E+00 0.000000000000E+00 0.000000000000E+00 0.000000000000E+00 0.000000000000E+00 0.000000000000E+00 0.000000000000E+00 0.000000000000E+00 0.000000000000E+00 0.000000000000E+00 0.000000000000E+00 0.000000000000E+00
 2.710109068488E-03 -6.350051720069E-03 0.000000000000E+00 -1.227445689859E+03 4.452890571538E+02 0.000000000000E+00 -4.521737600420E-03 4.029981575376E-03 0.000000000000E+00 1.491685946700E-03 -5.326169271241E-04 0.000000000000E+00 -3.090181769018E-04 -8.862467111549E-04 0.000000000000E+00 4.025095924148E+01 -2.498968142157E-01 0.000000000000E+00 1.614617433052E-03 -2.185685325474E-03 0.000000000000E+00 -1.995418441853E+01 3.563284156186E+01 0.000000000000E+00 -4.201447364044E-03 -1.195857118595E-03 0.000000000000E+00 -9.703473886454E-04 1.549285438686E-03 0.000000000000E+00 -5.195438974884E-03 -1.173777308024E-03 0.000000000000E+00 -6.350568316299E-04 -4.531445390349E-04 0.000000000000E+00 1.371926527537E-02 -3.456525129256E-04 0.000000000000E+00 -1.137436332375E+03 -3.901269463815E+02 0.000000000000E+00 9.036886162438E-04 2.222139600181E-03 0.000000000000E+00 3.679754553753E+01 -3.350771577327E-02 0.000000000000E+00 -1.768763542520E+01 -3.257619274456E+01 0.000000000000E+00 2.730481361543E+03
 -9.936968784019E-04 -4.325539016426E-03 0.000000000000E+00 4.547858038646E+02 -7.404821248258E+02 0.000000000000E+00 -4.176911838681E-03 -1.691848458898E-03 0.000000000000E+00 1.793526092251E-05 1.427589718747E-03 0.000000000000E+00 -8.421783783481E-05 3.883040552047E-04 0.000000000000E+00 6.708973675543E+01 -4.268902698813E-01 0.000000000000E+00 3.121358104508E-03 6.899366678746E-04 0.000000000000E+00 -3.324852511361E+01 5.936686730622E+01 0.000000000000E+00 2.267138041055E-03 1.891363836937E-04 0.000000000000E+00 -4.468799862076E-04 7.955372876330E-04 0.000000000000E+00 -8.499779805896E-04 -5.315006820631E-03 0.000000000000E+00 1.326007350933E-03 -7.687774510243E-04 0.000000000000E+00 -3.934208992428E-05 -5.075239235216E-03 0.000000000000E+00 -3.885175854574E+02 -6.691873629522E+02 0.000000000000E+00 -2.911115099485E-03 1.819321181937E-03 0.000000000000E+00 -6.501731744283E+01 4.569784365123E-02 0.000000000000E+00 3.124279130692E+01 5.754382847593E+01 0.000000000000E+00 -7.767999578066E+00 2.820016899672E+03
 0.000000000000E+00 0.000000000000E+00 0.000000000000E+00 0.000000000000E+00 0.000000000000E+00 0.000000000000E+00 0.000000000000E+00 0.000000000000E+00 0.000000000000E+00 0.000000000000E+00 0.000000000000E+00 0.000000000000E+00 0.000000000000E+00 0.000000000000E+00 0.000000000000E+00 0.000000000000E+00 0.000000000000E+00 0.000000000000E+00 0.000000000000E+00 0.000000000000E+00 0.000000000000E+00 0.000000000000E+00 0.000000000000E+00 0.000000000000E+00 0.000000000000E+00 0.000000000000E+00 0.000000000000E+00 0.000000000000E+00 0.000000000000E+00 0.000000000000E+00 0.000000000000E+00 0.000000000000E+00 0.000000000000E+00 0.000000000000E+00 0.000000000000E+00 0.000000000000E+00 0.000000000000E+00 0.000000000000E+00 0.000000000000E+00 0.000000000000E+00 0.000000000000E+00 0.000000000000E+00 0.000000000000E+00 0.000000000000E+00 0.000000000000E+00 0.000000000000E+00 0.000000000000E+00 0.000000000000E+00 0.000000000000E+00 0.000000000000E+00 0.000000000000E+00 0.000000000000E+00 0.000000000000E+00 0.000000000000E+00