#BIOSYM hessian 1
@Type: Hessian Update
@Units
 distance: 	A
 energy: 	Kcal/Mol
#header
@natom 69

#label
C1      C2      C3      C4      C5      C6      C7      C8      C9      C10     C11     C12     C13     C14     C15     C16     C17     C18     C19     C20     C21     C22     C23     C24     C25     C26     C27     C28     C29     C30     C31     C32     C33     C34     C35     C36     C37     C38     C39     C40     C41     C42     C43     C44     C45     C46     C47     C48     H49     H50     H51     H52     H53     H54     H55     H56     H57     H58     H59     H60     H61     H62     H63     O64     H65     H66     O67     H68     H69

#element
C  C  C  C  C  C  C  C  C  C  C  C  C  C  C  C  C  C  C  C  C  C  C  C  C  C  C  C  C  C  C  C  C  C  C  C  C  C  C  C  C  C  C  C  C  C  C  C  H  H  H  H  H  H  H  H  H  H  H  H  H  H  H  O  H  H  O  H  H 

#matrix
207
 2.790553515242E+03
 -1.158485835064E+01 2.804841264537E+03
 -2.105869817355E+01 -2.199335530708E+01 1.925771129426E+02
 3.981836595898E+01 6.641797262284E+01 -1.257257656485E+00 2.781717636458E+03
 -6.607058693791E-01 -1.125664235331E+00 8.054425719130E-02 -8.546683023251E+00 2.758688108494E+03
 -2.944628331117E-01 -5.437135060591E-01 8.704895708599E+00 -1.793314675049E+01 -3.460270536695E+01 1.903309276373E+02
 -1.926340789477E+01 3.497298588833E+01 -9.982902674905E-02 -1.391702053319E-02 3.699842037978E-02 -2.767275610154E-02 2.826439548007E+03
 -3.288945920570E+01 5.960570031486E+01 -2.223893584597E-01 -2.185323186155E-02 -1.188892594961E-01 -3.059073055436E-02 3.405981587868E+01 2.758336798992E+03
 3.871551788094E-01 -8.875900675028E-01 9.280180786144E+00 -1.558219578803E-01 -1.101821751471E-01 -1.383598407054E-01 -1.165825895833E+01 -1.423033349191E+01 1.899945226357E+02
 3.723336293860E+01 -6.756525547450E+01 4.629940650674E-01 -1.944191398884E+01 3.540822633947E+01 -3.194297928145E-01 4.027467753488E+01 6.883728390157E+01 -9.317684616487E-01 2.793680031070E+03
 -5.611065873277E-01 9.435456516140E-01 5.939170252685E-02 -3.246977760397E+01 5.911730212620E+01 -5.197060640239E-01 -5.268860234822E-01 -1.123224391231E+00 6.232523547452E-02 1.281533437331E+01 2.811609894014E+03
 -2.346170343732E-01 4.291362612886E-01 8.887516174927E+00 5.481410804611E-01 -1.022746735655E+00 9.034346552551E+00 -1.529800771155E-01 -2.653529910466E-01 1.016591286003E+01 -1.162204684860E+01 -2.778021219000E+01 1.954761913016E+02
 -3.064730552410E-02 -1.433917169025E-02 8.450150697680E-02 -4.457050908941E-02 -8.649975674337E-03 -4.099097466061E-02 5.026517414626E+01 -8.365136493662E+01 8.969196787396E-01 -2.141959695675E+01 3.708178262352E+01 -1.960938655664E-01 3.162230762812E+03
 -3.179127938908E-02 -3.415638943175E-02 5.798575831841E-02 -2.811590224056E-02 -3.516678527806E-02 -3.022914025409E-02 -7.536444233689E-01 1.270790441099E+00 2.008065626433E-01 -3.434145031165E+01 5.942065529003E+01 -3.867140709171E-01 1.618387122551E+02 3.349819163392E+03
 -2.603936131214E-01 -4.210869435927E-01 7.625869819245E-01 -3.944541112440E-01 -2.866337000962E-01 -3.692048928665E-01 1.453475931174E-01 6.176728425940E-01 1.275959615573E+01 4.243534654142E-01 -7.989234842079E-01 1.108896432532E+01 -7.018887054171E+00 -2.908920320450E+01 1.969761172148E+02
 -1.212812329373E+03 4.447638259770E+02 6.145853741352E+00 -4.637116578239E+02 -1.473092279383E+01 3.522001862304E+00 -1.899969865512E-02 -7.950104732166E-05 6.908166166003E-02 5.816980370848E-03 2.148632464809E-03 -4.740967098395E-02 6.227911505685E-03 8.505327861687E-03 6.666441068243E-02 2.816928928406E+03
 4.400759635586E+02 -7.398286732035E+02 2.597533733425E+00 -1.431055259334E+01 -1.433602571146E+03 1.746989166186E+01 -4.681436116266E-02 7.462503120742E-02 -5.735334876266E-02 9.793712375836E-04 4.157023137886E-02 -1.656219801044E-01 -4.836289994749E-02 -9.946511963475E-04 -2.543535633616E-01 5.497386097811E+00 2.773866074822E+03
 6.166180240671E+00 2.440687282430E+00 -8.256168307147E+01 3.447648749198E+00 1.738424415257E+01 -8.100789861020E+01 1.039565511514E-01 1.215789614456E-01 5.022398325399E+00 -9.456925751507E-02 -1.315026845106E-01 -8.753840654803E+00 9.706208300102E-02 5.881326972790E-02 9.301719403901E-01 -2.789475659282E+01 -3.212420446094E+01 1.923093068420E+02
 -1.217879964069E+03 -4.135022417404E+02 1.188824578257E+01 -3.970176935131E-02 -2.765999502785E-02 -9.536451894667E-02 -1.235800577362E+03 4.433429850728E+02 3.034197950811E+00 -4.715933622559E+02 -1.479640453102E+01 2.337997672356E+00 1.014578374792E-01 3.068046393582E-02 2.871196177618E-01 -1.933260890290E+01 -3.226458739738E+01 5.459765733867E-01 2.810578381892E+03
 -4.118448322102E+02 -6.955662417758E+02 8.433172094105E+00 4.429667947555E-02 6.402750535588E-02 -8.172711462583E-02 4.527484713440E+02 -7.397800433886E+02 2.464184981243E+00 -1.738420210456E+01 -1.460907944535E+03 1.376551873150E+01 -1.650425037905E-02 -3.509719782593E-02 -1.623979214298E-01 3.507132951122E+01 5.859328603336E+01 -6.533232665194E-01 -1.649014087376E+01 2.775844546917E+03
 1.178846775697E+01 8.393403434885E+00 -8.178533036454E+01 -7.016382787470E-02 -1.233749220781E-01 -8.995837218862E+00 2.799343434700E+00 2.552574671385E+00 -8.315044810425E+01 2.295448996828E+00 1.369649800785E+01 -8.262327248004E+01 -3.483910058111E-02 -1.042267383499E-01 -1.040163318326E+01 -4.519301056108E-02 -1.132736122582E-01 8.626539750523E+00 -1.683225518511E+01 -2.448974364551E+01 1.926356072959E+02
 -8.208398609938E-02 -5.465668721118E-02 4.901597706940E-02 -1.237438186607E+03 -4.210169543258E+02 1.334436390107E+01 1.975743190554E-02 5.762105814695E-02 2.375175873374E-01 -1.204561734119E+03 4.386202407047E+02 5.026472867474E-01 6.519971090426E-02 3.855611049519E-02 5.880625844028E-01 3.709717577667E+01 -6.173709584466E-01 -6.597063581417E-02 4.030134386886E+01 -6.326875507210E-01 -1.149745593027E-01 2.802255721124E+03
 2.605774310047E-02 9.411830124553E-02 -1.180801241903E-01 -4.224241164572E+02 -7.017429286447E+02 1.142598088578E+01 -4.484632989349E-02 1.438956964963E-02 1.406396057981E-03 4.409563908951E+02 -7.348534098348E+02 5.866011147799E+00 -2.183389081998E-02 1.267438453525E-03 -8.660827683380E-02 -6.753099637923E+01 1.051881939410E+00 5.422129990647E-01 6.714303443872E+01 -1.060546073494E+00 -1.506128850786E-01 7.031796520294E+00 2.786549163758E+03
 -7.383213175812E-02 -9.541781373128E-02 -8.968891570604E+00 1.352010552952E+01 1.145191639409E+01 -8.228441626489E+01 1.833645744036E-02 4.456303172836E-02 4.603306200146E+00 2.263777980830E-01 5.969690015894E+00 -8.221035277591E+01 1.858343786060E-02 5.504200613565E-02 4.545218629778E+00 6.576980778621E-01 1.032334883624E-01 8.770775532857E+00 -7.830045810561E-01 9.902913368238E-02 9.054688052353E+00 -1.578628297254E+01 -3.773411547446E+01 1.935191292604E+02
 3.839028233520E-03 2.038658812543E-02 2.328383911926E-03 1.245622706140E-02 2.104530635329E-02 7.021716260148E-03 -1.263397575997E+03 -4.505644773073E+02 6.762989328247E+00 3.739003907464E-03 7.512402869243E-03 -6.712533901296E-02 -6.024736439961E+02 -2.641622692676E+00 9.413282594994E-01 -5.781500293307E-03 1.111544954137E-04 -2.785080872689E-02 -2.169488856011E+01 -3.710378614999E+01 3.307300685212E-01 -1.456961420951E-02 -1.443546624055E-03 1.050128234342E-03 2.644319580882E+03
 1.697178858283E-02 1.207958187963E-02 3.866616248597E-02 -8.646301946412E-03 2.130040231372E-02 -6.839611269342E-03 -4.654737535281E+02 -7.763730281342E+02 6.396798703960E+00 -5.370998625405E-03 1.972629613009E-02 -5.165552687024E-02 -2.337244563206E+01 -1.790151485164E+03 1.580270589682E+01 -5.248882233826E-03 -3.455662862061E-02 2.576297669788E-02 3.617201177372E+01 6.171669851773E+01 -4.189328921769E-01 1.136205925962E-02 -1.457693348240E-02 -4.009435586643E-03 2.019957557247E+02 3.005218570661E+03
 1.915907843401E-01 2.983541815338E-01 4.313385507180E+00 2.259685669786E-01 1.658300594314E-01 2.045791734367E-01 6.883517053263E+00 6.154665375489E+00 -8.033353820997E+01 -3.622570486238E-04 -5.323632172691E-02 -1.088240208514E+01 9.875389778685E-01 1.545367421817E+01 -9.583915068083E+01 -4.621222399846E-02 1.362684688009E-01 -5.204204634523E-01 -2.577024093650E-01 -8.668853663589E-02 9.838763668418E+00 -3.202611318497E-01 6.790503989149E-02 6.161438805211E-03 -7.471366952270E+00 -2.549572658635E+01 1.743574555598E+02
 1.848397106372E-02 -1.424674590833E-02 1.186753633470E-02 -7.270085040503E-04 -1.012187130577E-02 2.666375265306E-02 5.860663450007E-02 -5.969692233107E-02 -4.137507342654E-02 -1.235403509629E+03 -4.369033568597E+02 9.467886175860E+00 -1.220617088074E+03 4.365861654490E+02 -1.271739258837E+00 -4.875321658817E-04 4.325709032587E-03 3.131801068880E-03 3.955715485755E+01 -5.747479786335E-01 -1.346894253834E-01 -2.044185856276E+01 -3.412289560398E+01 4.938683613593E-01 5.045300176135E+01 -7.441632139703E-01 -6.200140420977E-02 2.822877390728E+03
 3.359199128331E-02 8.225527351355E-02 -5.195258544979E-03 2.826808526660E-02 4.879823440339E-02 7.495239429976E-02 -6.519224696490E-02 4.707551866067E-02 -1.898468296048E-01 -4.374716569691E+02 -7.330539855956E+02 8.955110417445E+00 4.408854222620E+02 -7.991266406600E+02 5.885159152611E+00 -8.344335765952E-03 -2.107382540318E-02 -5.564568180609E-02 -6.858453233640E+01 1.036491576124E+00 4.033091139816E-01 3.535668326758E+01 5.910023135514E+01 -6.860685978663E-01 8.089965600200E+01 -1.241516449171E+00 8.960254857409E-02 -2.450702019795E+00 2.913719907763E+03
 1.309857169568E-01 2.068546371545E-01 4.277854734645E+00 1.734750944585E-01 1.735356260725E-01 4.730086576861E+00 -1.307764834116E-01 -2.367745979990E-01 -1.107978351720E+01 9.633042674906E+00 9.105227877254E+00 -8.731685591340E+01 -1.500271898904E+00 6.086104114666E+00 -8.767087522689E+01 -2.365775670664E-02 9.182860546952E-02 -3.498864102055E-01 4.128527201694E-01 1.213247622700E-01 9.507172508184E+00 -4.712065357100E-01 -3.422672408301E-01 9.151142539319E+00 -7.795825007297E-01 6.895000216643E-02 1.163858467316E+01 -9.299155497118E+00 -3.251319128208E+01 1.997318071867E+02
 -2.247651375965E-02 -1.145613892415E-02 6.892502841743E-02 -3.722114223636E-02 1.078962271866E-03 -3.771667652298E-02 -1.507186770835E-02 1.217727671951E-01 1.479691080021E-01 -1.449811665053E-02 1.135159278248E-02 1.041887604398E-01 2.467165691664E-02 3.925525008631E-02 4.098210727206E-01 1.309372722237E-02 -3.599332403516E-02 1.321725705186E-01 7.393800218862E-02 -2.830841820412E-02 -8.261285530857E-03 5.207080558173E-02 -2.174694938972E-02 4.268489036764E-03 -1.825956997399E-02 -6.756447807296E-03 -2.190396316134E-01 7.549374599760E-03 -4.967471691019E-02 -1.516465787127E-01 2.757825647341E+03
 2.237214923661E-02 3.689665488875E-02 2.708964434489E-02 -6.794337064045E-03 3.520063543592E-03 -1.904165947858E-02 -3.470399110349E-02 1.253796425769E-02 6.333843692015E-02 -5.675862681671E-04 2.244724826929E-02 3.551644052345E-02 1.871721222317E-02 1.340481612984E-02 1.539899008444E-01 -2.324484864319E-02 -1.304700467278E-02 1.180550971528E-01 7.567236243041E-03 -2.038602533509E-02 1.215544690502E-03 2.125236711449E-02 -2.041668313894E-02 -1.306964142899E-03 -5.167927731347E-03 -6.179937639680E-03 -9.585173534111E-02 -5.039289341306E-03 -2.072742758708E-02 -5.732697010510E-02 7.812789670221E+01 2.729567183888E+03
 1.371097311203E-01 1.927734876415E-01 -4.120457123295E-01 1.660511933494E-01 1.310560834883E-01 1.937489889674E-01 -8.822327485295E-02 -1.834955493903E-01 -9.173162955596E-01 5.226303030185E-02 3.523559036885E-02 -6.148989566913E-01 -2.711175285001E-01 -1.648420213314E-01 -2.467647111938E+00 3.035986981821E-02 2.511437812154E-01 4.206703371535E+00 -1.828120856659E-01 4.907977240317E-02 1.933657829683E-02 -3.028148298358E-01 7.793517584826E-02 -4.301609606444E-03 6.816092996864E-02 -5.533923600447E-02 1.357099143088E+00 9.340715620992E-03 1.505238678770E-01 9.198209401595E-01 -4.691608541604E+01 -4.078181181805E+01 1.908702166189E+02
 9.184547113367E-02 1.451887727781E-01 -1.987073242880E-01 1.157050036220E-01 1.042070185632E-01 1.018956256966E-01 -9.952315680526E-02 -3.651489099788E-02 -4.598433232312E-01 2.220220016876E-02 4.708854268062E-02 -2.950947444632E-01 -1.472504155951E-01 -7.254052634171E-02 -1.207906856972E+00 -2.792551177051E-02 3.403509068918E-02 -2.534290693668E-01 -6.062045656693E-02 3.990712852569E-03 8.601043466184E-05 -1.542865696417E-01 2.268127860505E-02 7.696534526725E-03 2.955999360292E-02 -3.882586268635E-02 6.822790855403E-01 1.039319655145E-02 5.277320899991E-02 4.550489838166E-01 3.596829764209E+01 6.163364882135E+01 -1.306945118225E+00 2.830962784048E+03
 -1.138294640646E-03 2.040201286233E-02 5.068191948763E-03 -3.785968101377E-03 2.302556042674E-02 -6.034564461000E-03 -3.075206874966E-02 9.439426530882E-02 8.927279124442E-03 -3.648278505782E-03 2.005174418396E-02 7.581715996927E-03 -1.644505883958E-02 1.457057766913E-02 2.690183189987E-02 -1.532173215343E-04 -2.282365786039E-02 2.570982983522E-03 4.452784962480E-02 -2.448191101560E-02 -1.588711812901E-03 2.677303168455E-03 -1.009206735061E-02 1.433973875272E-03 -7.815472110286E-03 -1.866394601965E-02 -1.275530481488E-02 7.342922619273E-03 -2.786460135662E-02 -9.737749637780E-03 -1.663104966984E+00 -2.828853259357E+00 3.764755140623E-01 3.090235232549E+02 2.767546225570E+03
 3.665227440977E-01 4.986287328917E-01 -5.687498155498E-01 3.485985758949E-01 2.871106865963E-01 2.988790413568E-01 -3.720729735400E-01 -3.698908673717E-01 -1.332167831690E+00 5.626981456227E-02 1.472064443342E-01 -8.309156364619E-01 -3.723762416774E-01 -2.410954817523E-01 -3.445490457179E+00 -1.292218263039E-01 1.383906630125E-01 -7.880592537415E-01 -2.783602094397E-01 5.016952423611E-02 -2.021312781638E-02 -4.235461315983E-01 4.239409359123E-02 4.630761721426E-02 1.047117382272E-01 -6.434826750523E-02 1.968604804093E+00 1.168110960923E-02 1.945075766112E-01 1.310780147961E+00 -9.163304320087E-01 -1.301252771690E+00 1.164791953183E+01 -4.685276403722E+01 -6.794521163334E+01 1.526533156709E+02
 -2.007251082955E+01 -3.349130870569E+01 7.288059236546E-01 3.806068463429E+01 -6.027416026505E-01 -2.947840735733E-01 -6.305917086792E-03 -1.865087565298E-02 -5.896529078890E-02 1.986435927562E-03 -6.107842836414E-03 -3.501257991083E-02 -1.171803947756E-02 -1.178389730756E-02 -1.427156809515E-01 -1.259195782026E+03 -4.306938139230E+02 1.849669692337E+01 -1.573393624710E-02 6.038257187266E-03 4.141014099992E-02 -1.495919816807E-02 5.998840610753E-03 5.608263965537E-02 6.426186136236E-03 2.939774091404E-03 8.187329545509E-02 -1.382744890354E-03 1.411023379786E-02 5.319382863411E-02 -1.996913883894E+01 3.567584260627E+01 -4.086115698394E-02 4.482217277323E-02 1.338206198833E-04 1.697568988291E-01 2.770449918683E+03
 3.619768419874E+01 6.046748869116E+01 -1.077239272073E+00 -6.856870282822E+01 1.115026866340E+00 8.884809453770E-01 -3.542801769640E-02 1.268382065183E-02 -7.197388423683E-02 -1.202390513164E-04 1.415178085998E-02 -4.350961101835E-02 -2.698059795761E-02 -8.497269288216E-03 -1.896893138539E-01 -4.353998728406E+02 -7.168879830398E+02 1.232836832685E+01 1.333977844676E-02 -9.953471581251E-03 5.546322204296E-02 -1.966430577046E-02 9.073317222405E-04 6.354174734176E-02 2.813613482254E-03 -7.794779382305E-03 1.049541538453E-01 3.882446293467E-03 1.366879736769E-03 7.260009873951E-02 -3.315001879731E+01 5.916598517237E+01 -3.246343061425E-01 5.960593495412E-02 -9.445623811552E-03 1.927091335073E-01 2.861253370624E+01 2.792272776709E+03
 -1.667407993753E-01 -4.015355382512E-01 9.811059008767E+00 4.836053155626E-01 8.449235199280E-02 8.800600047283E+00 6.745151078060E-02 2.792663376421E-02 1.227404517710E-01 -1.764462973697E-02 -1.836959163530E-02 6.903441939098E-02 2.852937016561E-02 1.668173600041E-02 3.006067580627E-01 1.864251865498E+01 1.242987372424E+01 -8.312213371162E+01 7.375605528115E-02 4.907730305525E-02 4.623975990275E+00 7.543402900021E-02 4.839973631891E-02 4.541078689154E+00 -1.095970661569E-02 1.164744614164E-02 -1.810978724995E-01 5.623780717945E-03 -1.544295719680E-02 -1.174789907472E-01 9.895995126795E-01 -1.403073313990E+00 9.109557041541E+00 -8.082979446249E-02 -1.262789241103E-02 -4.779865799156E-01 -3.207590632981E+01 -2.914234351790E+01 1.907571894342E+02
 2.850350480019E-02 5.465628073888E-02 -5.685759730944E-02 -1.936386245756E+01 -3.175374244242E+01 8.230039122480E-01 -4.566516481438E-02 9.280562878055E-02 -1.285511288113E-01 3.134686106964E-03 3.084397469024E-02 -8.176576265373E-02 -6.526864966086E-02 -8.978340245217E-03 -3.350020295464E-01 8.552244526344E-03 -4.745245838285E-02 -1.565439717968E-01 2.682793455693E-02 -1.972528818177E-02 6.276984498635E-04 -4.414129267339E-02 -1.136613260204E-03 4.048980031425E-02 -1.352780731348E-03 -2.974569691334E-02 1.934784369148E-01 1.552850265172E-02 -1.072858602084E-02 1.259327943735E-01 3.935312592227E+01 -7.031856084174E+01 8.945335726135E-01 -2.285488948344E+01 4.162723880339E+01 -1.795975766083E-01 3.837631941442E+01 6.371563952295E+01 -1.644502042224E+00 2.775409335631E+03
 1.081329901738E-02 1.418643125401E-02 2.487238503573E-02 3.521775816362E+01 5.777388190616E+01 -1.220843876333E+00 -2.285099957184E-02 6.142833012109E-02 4.087732372841E-02 -1.695328162734E-04 1.689917868857E-02 1.954822281003E-02 2.786004070589E-03 1.488688639650E-02 9.499454420803E-02 -3.148548208622E-02 -3.910131116439E-02 -1.201414557254E-01 2.362100460461E-02 -1.944504761606E-02 1.776345613896E-03 1.123134111873E-02 -1.270865852044E-02 7.633050343451E-02 -6.594642858787E-03 -1.482360272570E-02 -6.027952545665E-02 -1.006700488063E-03 -2.357145699251E-02 -3.704447337280E-02 -6.683125112102E-01 1.199872518657E+00 1.996639139547E-01 -4.109078008902E+01 7.456469112805E+01 -1.103198638189E+00 -6.360159256180E-01 -1.077355899611E+00 2.725395341766E-01 9.205147965766E+00 2.705822912124E+03
 2.485567099029E-02 1.402997891400E-02 -3.779490745941E-02 -3.604299454981E-01 -5.830496349080E-01 8.400897882804E+00 -6.408615357175E-03 -3.016289598536E-02 -8.624443620395E-02 -1.871192459242E-03 -4.345707720816E-03 -5.456361352159E-02 -2.819809583270E-02 -2.348357623498E-02 -2.247085747134E-01 -8.954199488616E-02 -9.068719466787E-02 -8.875448370249E+00 -1.529618432415E-02 1.448791553644E-02 -4.119590363802E-04 1.818483630226E-02 6.452623761624E-02 4.468814323766E+00 3.561538638385E-03 5.410424194583E-03 1.272742133974E-01 1.006686107953E-02 2.129339146503E-02 8.467844608262E-02 -4.403206672642E-01 1.188370004738E+00 8.840916409744E+00 1.532991589641E+00 -2.272476497806E+00 1.152909353937E+01 -4.437560256783E-01 -8.407883682601E-01 8.861149849018E+00 -2.572042723383E+01 -4.624913486185E+01 1.840169815228E+02
 -1.029620328155E-01 -1.727335150384E-01 1.275969720973E-01 -8.600045524546E-02 -1.138342590443E-01 -5.617141859702E-02 1.436998729404E-01 -7.333237120843E-02 3.017392635993E-01 -1.301143724414E-02 -8.232862375877E-02 1.978074642735E-01 1.181335010475E-01 3.224490217936E-02 8.025105581840E-01 4.318929325557E-02 1.798461044160E-02 1.712575689938E-01 7.712396580587E-04 3.898495386701E-02 -4.648131287153E-04 1.034536283294E-01 1.339152455401E-02 -4.524665524005E-03 -1.110292632170E-02 5.663682580155E-02 -4.479389983836E-01 -1.145739647176E-02 5.159988061251E-03 -3.032460285840E-01 -1.118379006484E+03 4.016528885587E+02 1.321255029536E+01 -4.837196506167E+02 -3.294153523918E+01 7.356603573031E+00 -4.527335756072E-02 -3.168561312516E-02 1.568383183347E-01 -5.055326128245E-02 3.363248431288E-02 -1.698429958345E-01 2.978767885251E+03
 -3.570766825711E-02 -8.035873493574E-02 3.668926420642E-02 -2.654296990121E-02 -4.410371400743E-02 -1.004813427181E-02 6.784753909800E-02 -6.358037933722E-02 8.214199039804E-02 -5.009546869290E-03 -4.132227927019E-02 5.698729925208E-02 4.123008569779E-02 1.594377130009E-03 2.265086572412E-01 2.260797966549E-02 1.601591839731E-02 5.074876697860E-02 -1.682372445000E-02 3.089812017115E-02 -1.546515960912E-03 2.890982661972E-02 1.296958337591E-02 -2.197857510902E-04 7.313588424131E-04 2.894938604629E-02 -1.207445108728E-01 -4.384947796441E-03 1.760203938515E-02 -8.504122795440E-02 3.937506907721E+02 -6.884764776101E+02 3.011152931644E+00 -2.774317676314E+01 -1.428547921397E+03 3.283702951870E+01 -1.254317735339E-02 -5.203759599577E-03 1.057200138143E-01 -3.208306102491E-02 2.466247861895E-02 -2.391537840093E-01 1.709258322955E+02 2.802442290472E+03
 -4.922569421458E-01 -7.072822067701E-01 8.117189187053E-01 -4.935805364377E-01 -4.180577375273E-01 -4.123091306562E-01 5.072170403475E-01 4.307051249847E-01 1.885593990942E+00 -9.232551616943E-02 -2.195069508672E-01 1.199041747534E+00 5.445859425334E-01 3.278498009705E-01 4.928042537450E+00 1.753175986201E-01 -1.800345588163E-01 1.091587193689E+00 3.714640830791E-01 -4.100675405640E-02 1.285110853708E-02 6.158055116473E-01 -6.100873186008E-02 -4.881148151041E-02 -1.419853818277E-01 1.198758885305E-01 -2.787426502888E+00 -1.513709043795E-02 -2.553421063434E-01 -1.867221542012E+00 1.432425164904E+01 3.219726472196E+00 -8.155978838874E+01 6.509416273808E+00 3.277910286643E+01 -7.760913731580E+01 -1.424995188540E-01 -1.528307439057E-01 4.832584397164E+00 -6.341783742162E-01 -8.303222821696E-02 -1.009657662140E+01 -6.014707931601E+01 -6.395719445761E+01 1.911119407200E+02
 -3.219097610640E-03 1.157254765947E-02 5.351503287617E-02 -5.669114264050E-03 -1.580094225664E-02 -6.710537865347E-02 -4.478387965887E-03 4.857366935268E-03 1.244842604041E-02 2.836194116921E-03 7.290410487633E-03 4.554543755749E-03 2.914947812426E-03 5.376821365569E-03 2.080380005477E-02 -1.934123098696E+01 3.487766223636E+01 -3.305856288064E-02 3.973556659441E-03 -1.035571500379E-02 4.210517746137E-03 1.974509383243E-03 -5.095331193146E-04 -1.733327909378E-03 -1.184922881711E-03 -4.871621559894E-03 -1.893954928377E-02 -2.917824442925E-03 -6.301463870215E-03 -8.288584890108E-03 -1.290942515618E+03 -4.521717675146E+02 2.648026976059E+01 -2.141097167079E-02 -1.010611924002E-02 -2.296457607593E-01 -1.153115201196E+03 4.237535060650E+02 9.020034070827E+00 -4.582401028582E+02 -1.802101786361E+01 4.971912053692E+00 -1.883693531393E+01 -3.223764478132E+01 9.897962875294E-01 2.787952635488E+03
 1.187726031454E-02 -6.463928664413E-04 -6.580852008923E-02 4.046340165601E-02 2.067068505446E-02 -8.289251684568E-02 3.031788322091E-02 -1.034520956526E-01 -2.480406876923E-01 1.304415114992E-02 -1.859048736740E-02 -1.607571630940E-01 -6.431164038179E-02 -5.403613845706E-02 -6.538504578059E-01 -3.204019233783E+01 5.787619447652E+01 -2.528384168684E-01 -6.788533223018E-02 4.114752434774E-02 5.487233533314E-03 -8.522406788738E-02 3.598312520393E-02 -2.314497738988E-03 2.212248219776E-02 5.189855373165E-03 3.699561389149E-01 4.169570300160E-03 6.350448581977E-02 2.441910885179E-01 -4.498916024004E+02 -7.326124130557E+02 1.791186360943E+01 1.486182286033E-01 1.116561817652E-03 2.377381081299E-01 4.201297925526E+02 -7.134627835821E+02 2.942097313522E+00 -1.095876877594E+01 -1.436852791749E+03 2.463350427752E+01 3.360097826509E+01 5.758979151779E+01 -1.917849051981E+00 4.502144719543E+01 2.766990410098E+03
 -6.094727423703E-03 -3.217839356906E-02 4.870854610298E+00 -2.056040896186E-01 -2.201537317398E-01 -8.927791276996E+00 -9.200261645125E-04 1.421507564127E-01 8.298773927829E-01 -4.584125859668E-02 -1.428524602341E-03 5.781938635597E-01 2.549046193799E-01 1.527906676340E-01 2.281155277029E+00 6.625808981218E-01 -1.182144487042E+00 8.826488283861E+00 1.498670281995E-01 -5.414594663380E-02 -3.446028324488E-02 2.756819583933E-01 -8.842614140774E-02 2.237035569360E-02 -5.912775613087E-02 4.993825545069E-02 -1.228417460599E+00 -1.362447242128E-02 -1.453778982116E-01 -8.410239372010E-01 2.657605103994E+01 1.761045282201E+01 -8.553402786001E+01 -7.569560336761E-01 -2.247698624690E-01 -1.096382000060E+01 8.889604508612E+00 2.949627635645E+00 -7.942440501145E+01 4.826520962164E+00 2.453588723497E+01 -8.022518537040E+01 3.570082596119E-01 -6.960931095944E-02 9.387534341965E+00 -4.001290581351E+01 -4.493623397669E+01 1.918017419385E+02
 -2.725757971240E-02 -5.794153336567E-02 5.026386403361E-02 -3.416650371075E-02 -4.896160186555E-02 1.317234343823E-02 4.964872947584E-02 -7.330989869237E-02 1.197255633923E-01 -4.820807469556E-03 -3.301869474614E-02 7.868621735176E-02 5.598082957153E-02 7.050778895659E-03 3.191603113328E-01 1.114144256498E-02 1.576667075781E-02 6.122071652321E-02 -1.971771617709E-02 2.148450905998E-02 -1.232842211013E-03 4.408490046303E-02 2.792347000967E-03 -5.332868159149E-04 -1.245125710663E-03 2.971940830447E-02 -1.794183783393E-01 -8.346824455531E-03 1.036644457029E-02 -1.197513972096E-01 2.171495070261E-02 -5.359770412573E-03 -3.363896574631E-01 -1.583954629877E+03 -5.424956645121E+02 3.525330793337E+01 -1.459583467465E-02 -1.362422911665E-02 2.760344400078E-02 -1.220210374668E+03 4.226247549774E+02 4.315790443262E+00 4.631670221775E+01 -2.098063665091E+00 -8.127059727409E-02 3.729527055205E+01 -6.821471021447E-01 -4.599283759424E-02 3.101356473029E+03
 -1.899031072766E-02 -2.810742448268E-02 5.763957866990E-02 -2.816821010693E-02 -2.864726608564E-02 5.140114804670E-02 1.561620453259E-02 6.488662029794E-03 1.326571242780E-01 -5.950901399076E-03 -8.820202419387E-03 8.808944066929E-02 4.400216224585E-02 2.170427304988E-02 3.545525743429E-01 -1.816166077746E-04 -1.119401968560E-02 6.667830670483E-02 1.595844620021E-02 -4.023089294781E-03 -2.269018157768E-03 4.526602004967E-02 -9.123354310077E-03 5.262225120831E-04 -8.183563858537E-03 1.106141850581E-02 -1.976018953901E-01 -4.076840793337E-03 -1.689679427221E-02 -1.323664982138E-01 2.476586265159E-02 1.038278370608E-02 -5.093453286889E-01 -5.620519993369E+02 -8.806763960715E+02 2.820030344526E+01 -8.106088482567E-03 -1.312665027116E-02 7.297670395614E-02 4.107197150825E+02 -7.149506639789E+02 9.295256570224E+00 -8.400549540195E+01 3.842155704994E+00 1.737393189616E+00 6.677370960229E+01 -1.175771868017E+00 -1.898764351005E-01 1.275875068059E+02 2.539337517112E+03
 1.373742552084E-01 2.055841947140E-01 -2.187119232839E-01 1.906248129109E-01 2.179702616270E-01 4.658614734188E+00 -1.512261980974E-01 -1.375730749130E-01 -5.153600717345E-01 2.517747020420E-02 6.456499676931E-02 -3.184208244005E-01 -1.423822805156E-01 -8.935755679374E-02 -1.325987228498E+00 -3.923494712634E-02 2.716911971378E-02 -3.078310841280E-01 -1.061170525885E-01 1.208795851601E-02 -9.966279305742E-03 -1.737716019224E-01 1.071630762094E-02 2.041155077939E-02 4.162195099432E-02 -2.765922773539E-02 7.616326744779E-01 1.279179046529E-03 7.114985319907E-02 5.056075213508E-01 -2.778962551621E-01 -3.870747956208E-01 -9.126218302020E+00 3.669030199081E+01 2.824028766809E+01 -7.072434943710E+01 9.225447780836E-02 1.468292624507E-01 4.029537616840E+00 4.697652004810E+00 9.052943976643E+00 -7.432795659808E+01 1.082335239048E+00 1.355858968862E-01 6.654077823705E+00 -1.369783409831E+00 4.721688421993E-01 9.678762163403E+00 -4.467730012084E+01 -6.182809662841E+01 1.528445398535E+02
 -3.517311258406E-02 -8.172709402763E-02 1.221307461219E-01 -1.198650305041E+03 4.432904564249E+02 1.867401586158E+00 5.195270161394E-02 -7.277945581531E-02 1.992665010804E-01 -1.068609386291E-02 -4.180860374552E-02 1.593232945172E-01 8.854330770055E-02 2.337110432994E-02 5.313490217149E-01 4.009331740635E+01 -6.208055011340E-01 -8.489978944260E-02 -1.353107032536E-02 2.428868119101E-02 -4.567846984455E-03 -1.965676789320E+01 3.592326286599E+01 -3.076021485007E-01 -2.260635897608E-03 3.404658889851E-02 -3.001325442181E-01 -1.839500209590E-02 -2.341819989583E-03 -1.991351290223E-01 6.313801106328E-02 2.833912530157E-02 -1.951296557755E-01 -1.255957257092E-01 2.873855323281E-02 -3.863564023681E-01 1.796613223465E-03 -1.275055280418E-02 -5.026233786524E-03 -1.210980712448E+03 -4.122677123350E+02 1.743608703235E+01 5.274631204533E-02 3.305246845816E-03 5.932283820296E-01 3.655981254012E+01 -7.295430850719E-01 -5.903599416865E-02 -1.799650660687E+01 -3.220652403731E+01 6.205093155922E-01 2.768599313030E+03
 1.201011768406E-02 2.714713766205E-02 1.815966091699E-02 4.479528752351E+02 -7.382645535611E+02 6.852839691364E+00 4.989857204895E-03 -4.863996309893E-02 -7.765314306505E-02 3.665633392283E-03 -1.803160856802E-03 1.519329273533E-02 -2.284392444294E-02 -1.932313618904E-02 -2.030040869527E-01 6.580169321572E+01 -1.012344645918E+00 -3.446392832446E-01 -2.395928963413E-02 5.355883282092E-03 8.050759266273E-04 -3.236301501221E+01 5.894792109945E+01 -4.586919219613E-01 4.741417317791E-03 6.435100485693E-03 1.158329607263E-01 7.976979141639E-03 2.094339886064E-02 7.852281434512E-02 -1.277002098396E-02 -8.800943124092E-03 1.614939817437E-01 6.668441109288E-02 6.110157692848E-03 2.671603562343E-01 -1.207953657694E-02 -8.687794142772E-03 -1.851742751814E-01 -4.103855391844E+02 -6.907254623713E+02 1.462286402216E+01 -5.200134822942E-02 -1.692236613495E-02 -2.407587459877E-01 -6.633507983137E+01 1.162413871896E+00 6.536866991986E-01 3.265890306160E+01 5.850473760845E+01 -1.089350763778E+00 2.505790104220E+01 2.787704249662E+03
 -4.365331144369E-02 -5.062307797626E-02 4.679921727635E+00 1.630251788841E+00 6.808619456079E+00 -8.155518158712E+01 9.186313645233E-02 1.045947977443E-01 3.361907679698E-01 3.097815435428E-02 2.398000655599E-02 4.785557569675E+00 9.581214835737E-02 6.242262367980E-02 8.727785377924E-01 -1.008027507418E+00 9.085366912904E-02 9.492713373097E+00 5.856182823877E-02 -2.372472204719E-02 4.658419373547E-03 7.293280164685E-01 -8.868859991639E-01 8.993192949461E+00 -2.749720338332E-02 1.251693240125E-02 -4.970870360661E-01 -5.475205493460E-03 -4.414024840929E-02 -3.317572289446E-01 1.249074868173E-01 1.395205860326E-01 4.182402256082E+00 -2.075573514088E-01 1.457702026244E-01 4.896877552975E+00 -1.510395398522E-01 -1.753462144006E-01 -8.722424423974E+00 1.738354646918E+01 1.465777521236E+01 -8.311467767998E+01 1.928571495499E-01 3.070329935210E-02 1.191329930988E+00 9.734395027159E-01 -1.468247428540E-02 8.164476343586E+00 -2.392420477383E-01 -4.910479112307E-01 8.851045011575E+00 -2.296296296879E+01 -4.769026774564E+01 1.874756556356E+02