#BIOSYM hessian 1
@Type: Hessian Update
@Units
 distance: 	A
 energy: 	Kcal/Mol
#header
@natom 70

#label
C1      C2      C3      C4      C5      C6      C7      C8      C9      C10     C11     C12     C13     C14     C15     C16     C17     C18     C19     C20     C21     C22     C23     H24     C25     C26     C27     C28     C29     C30     C31     C32     C33     C34     C35     C36     C37     C38     C39     C40     C41     C42     C43     C44     C45     C46     C47     C48     C49     H50     H51     H52     H53     H54     H55     H56     H57     H58     H59     H60     H61     H62     H63     H64     H65     H66     O67     H68     O69     H70

#element
C  C  C  C  C  C  C  C  C  C  C  C  C  C  C  C  C  C  C  C  C  C  C  H  C  C  C  C  C  C  C  C  C  C  C  C  C  C  C  C  C  C  C  C  C  C  C  C  C  H  H  H  H  H  H  H  H  H  H  H  H  H  H  H  H  H  O  H  O  H 

#matrix
210
 2.779524896258E+03
 -4.223804179130E+01 2.769525230106E+03
 -2.724360332862E+01 -3.636006298332E+01 1.900221213265E+02
 3.909978293411E+01 6.459711639567E+01 -2.220542472780E+00 2.812775998847E+03
 -9.732721570888E-01 -1.552023067896E+00 2.424246565638E-01 -5.273103760479E+01 2.723144910528E+03
 -5.358250917334E-01 -5.725902278480E-01 7.806349246038E+00 -4.858036252639E+01 -6.212272912441E+01 1.932293912856E+02
 -1.891573299601E+01 3.532869092422E+01 -7.225716991953E-01 -1.673378887588E-01 -1.700433580775E-01 3.387677945337E-01 2.818558993779E+03
 -3.145922901437E+01 5.863478230399E+01 -8.894449444060E-01 4.926492879615E-02 2.007200700449E-02 5.042860642681E-02 2.114439587060E+01 2.739532032752E+03
 7.077379563829E-01 -1.309977530439E+00 8.705761172020E+00 -2.556750951494E-01 5.718063767568E-02 -5.199707063523E-01 -2.102310631632E+01 -5.840010432988E+01 1.877724360487E+02
 3.563790688704E+01 -6.628645237685E+01 1.700536833665E+00 -1.960129984669E+01 3.611864865589E+01 -4.062065874323E-01 4.098955606328E+01 6.887774038598E+01 -2.106846851565E+00 2.799491296568E+03
 -8.028756541369E-01 1.336190170426E+00 8.064366727489E-03 -3.134161616492E+01 5.931096441914E+01 -1.598103761972E+00 -7.713537138754E-01 -1.583448238128E+00 2.973319210055E-01 -1.974711438424E+00 2.805492989757E+03
 2.128836600055E-01 8.113790804876E-01 9.178450181587E+00 2.499186678184E+00 -2.574955809168E+00 1.103553198896E+01 7.519341827041E-04 -4.021941860313E-01 9.333683760013E+00 -2.515843033306E+01 -6.998415673396E+01 1.994927588994E+02
 7.506568580428E-03 8.093403793140E-02 1.828876326632E-03 6.446791880450E-02 -1.237248768531E-01 3.579914870021E-01 4.957364422934E+01 -8.435984391061E+01 2.131728841994E+00 -2.166371292380E+01 3.909402840257E+01 -2.046642935986E-01 2.615631632589E+03
 2.221836905144E-02 -1.713875074025E-02 7.521342927747E-02 5.479808999903E-02 4.586820261388E-03 -5.332127929396E-02 -1.148993605847E+00 2.008823820161E+00 1.938894530049E-01 -3.410532640057E+01 6.180263104226E+01 -9.833289768372E-01 -1.721687949620E+02 3.056004639404E+03
 -2.286648922584E-01 -1.517079722488E-01 -4.705198344277E-01 -1.534284338636E+00 3.920273514204E-01 -3.035066131101E+00 -8.192094149043E-01 8.726479383630E-01 1.322994656726E+01 2.789000896113E-01 -7.576909701786E-01 5.222877680028E+00 -1.816701160354E+01 -7.775923600461E+01 1.604237678138E+02
 -1.230731462393E+03 4.644528194115E+02 7.824561416570E+00 -4.452137740090E+02 -2.483406005669E+01 5.265706275208E+00 2.156114445042E-01 -1.024742801074E-02 1.506454564824E-02 4.063433811323E-01 -2.491693282077E-01 4.726834734116E-02 1.093561981865E-01 -4.070666463604E-02 1.123517334074E-02 2.808746948448E+03
 4.568762892799E+02 -7.575210679764E+02 4.198758242336E+00 -2.322851948048E+01 -1.357470954644E+03 2.827495956256E+01 1.285958576444E-01 -1.124573331654E-02 7.345957304897E-02 2.068948680871E-01 -1.391657122576E-01 -5.896529516359E-01 3.669571323103E-02 -1.981445589313E-02 3.451381018141E-01 -1.135232670109E+01 2.701898309030E+03
 6.146348954716E+00 4.982694899430E+00 -8.250641540051E+01 5.223237940470E+00 2.687904113433E+01 -7.932647241510E+01 -1.843455941432E-01 2.204111969039E-01 5.096249201470E+00 -1.213494670707E-01 4.910915275876E-01 -1.047628886800E+01 -2.648908092893E-01 4.769178535334E-02 2.149918970358E+00 -2.882798542261E+01 -4.234230763179E+01 1.895648743174E+02
 -1.194220585502E+03 -3.965407611245E+02 1.729558383915E+01 9.976413901656E-02 1.632136782480E-01 -4.544328095835E-01 -1.234391877554E+03 4.517241630698E+02 -7.843759834928E-01 -4.699063179065E+02 -2.204666662098E+01 3.056214519061E+00 2.583428807220E-03 -1.969217328617E-02 8.719934976841E-01 -1.933197889374E+01 -3.150737135330E+01 1.095785055274E+00 2.786067573992E+03
 -3.966682504403E+02 -6.700709370854E+02 1.467296671361E+01 -5.747298106666E-02 -1.892993307670E-01 -1.188483645617E-01 4.628148086953E+02 -7.507030771271E+02 1.166059857474E+01 -2.630860141069E+01 -1.461076787635E+03 3.601888387374E+01 1.383114714960E-02 -5.313320889927E-03 -9.112741831773E-01 3.571342503876E+01 5.854896343384E+01 -1.840726287638E+00 -3.532585593594E+01 2.761841364643E+03
 1.801856929153E+01 1.428014800832E+01 -8.008214539796E+01 -1.266348114637E+00 2.294891588075E-01 -1.128671768560E+01 -2.227485780721E+00 1.225814730225E+01 -8.305727928976E+01 3.130316710420E+00 3.560570514434E+01 -8.784285426578E+01 -5.819968596081E-01 -5.127090048371E-02 -3.949440119551E+00 -2.860273690808E-01 3.040614240057E-02 1.006066608030E+01 -1.877315071909E+01 -6.118590747488E+01 1.972471785121E+02
 1.112371923998E-01 -3.923459571584E-01 2.101581619420E-01 -1.236907875867E+03 -4.081742655063E+02 3.089689193545E+01 4.621384121476E-01 -8.295277149094E-02 2.516954057167E-01 -1.201254718233E+03 4.462524624496E+02 -9.464252085543E-01 9.227171760696E-02 -7.220250176177E-02 1.459113228877E+00 3.369929987449E+01 -1.230609754422E+00 -3.755432469230E-01 4.085385812176E+01 -5.952386810264E-01 9.656197557028E-01 2.801451628942E+03
 -1.223249578421E-02 -7.668825690940E-04 5.889083627782E-03 -4.162314481733E+02 -6.887572717013E+02 2.455420125599E+01 6.258868865979E-02 -4.143401793948E-03 1.215723486970E-01 4.489868442919E+02 -7.484534510780E+02 1.542913244879E+01 7.100830613926E-02 2.179090575785E-02 -1.562145792979E-01 -6.444383037761E+01 1.611517133698E+00 1.553869443201E+00 6.700151955673E+01 -1.408833781856E+00 -6.605798684743E-01 1.232918512720E+00 2.779996908839E+03
 -1.781785250380E-01 -5.742179835502E-01 -8.654117884914E+00 3.220719770242E+01 2.478210757810E+01 -8.467640480904E+01 -3.697879760473E-01 2.325692783454E-01 5.136310959919E+00 -1.086368294283E+00 1.571528037992E+01 -8.521880770181E+01 -2.876169534902E-01 2.082096800920E-01 7.840466463761E+00 5.132792996497E-01 3.620789258744E-01 9.768844010581E+00 -1.374489747954E+00 -3.700784786208E-02 1.149931852689E+01 -3.557291412893E+01 -8.672824945062E+01 1.979499510323E+02
 1.173169617629E-02 -7.258025651254E-02 1.353060213328E-01 1.583047088385E-02 1.074869780009E-01 -2.136062697075E-01 -1.261414083626E+03 -4.412035064314E+02 1.964318376069E+01 8.080687617003E-02 -4.094052802074E-02 -2.694622959306E-01 -5.674452112861E+02 -2.736098527209E+01 5.432074512462E+00 -9.238839340914E-02 -5.069714748259E-02 2.020926596266E-01 -2.174766360230E+01 -3.619910531026E+01 1.418248862669E+00 -1.766165458268E-01 -5.664843694026E-02 2.414536683203E-01 2.617463356694E+03
 8.444771564638E-03 -6.935276960001E-02 6.938390631979E-02 8.261716311063E-02 8.060433293359E-02 -1.174612015165E-01 -4.568883100115E+02 -7.625498058268E+02 1.998371306949E+01 1.620055622475E-01 -1.040645533182E-01 -4.996604672648E-01 -3.576397853388E+01 -1.806783914540E+03 4.871587851655E+01 -1.417154571504E-01 -7.562759712476E-02 5.102961117431E-02 3.684312924544E+01 6.165875838274E+01 -1.534381559155E+00 -2.216479754062E-01 -2.297951213953E-02 6.630529406071E-02 1.985982318771E+02 3.019211700216E+03
 4.410201755818E-02 1.367960928258E-01 4.518835156108E+00 2.903283730620E-01 -8.370439284254E-02 5.881450834927E-01 2.070952715843E+01 2.014073846080E+01 -7.801544093524E+01 -2.570328198441E-02 -4.016232712438E-01 -9.892205092507E+00 5.411612143744E+00 4.815392086222E+01 -7.272059110832E+01 7.040495362920E-02 -3.056216006125E-02 -4.254657626510E-01 -7.349310551033E-01 -8.192005901683E-01 9.469680696527E+00 -3.088478031226E-01 5.280851227620E-02 -5.327198644635E-01 -2.599792410936E+01 -7.701791734892E+01 1.547065553836E+02
 -1.495802810828E-02 -1.842593033648E-01 -1.057906987714E-03 -1.669161702605E-01 2.252164240620E-01 -8.146941664146E-01 7.407238857968E-02 -4.241715031702E-02 9.913459844540E-02 -1.243612024401E+03 -4.259472417826E+02 2.147792125490E+01 -1.265256686747E+03 4.781024277756E+02 -1.451267161931E-01 -2.899485377271E-01 -6.358730833277E-02 6.323755325852E-01 3.815025864581E+01 -9.372875736805E-01 8.528491923478E-01 -2.023742915799E+01 -3.287655535027E+01 1.936875813709E+00 5.343505014935E+01 -1.287845769790E+00 -5.651702260374E-01 2.864109974008E+03
 4.624232190010E-02 6.930624489917E-02 1.377168601433E-02 2.273841930208E-01 -1.895586427617E-01 5.030330519941E-01 2.374468963099E-02 2.486233202482E-03 -3.209087725766E-01 -4.226698272552E+02 -7.155053428259E+02 2.184373189316E+01 4.678470447730E+02 -8.092365492344E+02 1.466135627317E+01 -8.841463721526E-03 -1.450311511143E-02 -5.261971421649E-01 -6.912939607802E+01 1.588610249564E+00 1.103283068145E-01 3.646662862651E+01 5.946683347989E+01 -2.150855116771E+00 8.440692861488E+01 -2.026303099607E+00 -2.366322401376E-01 -4.322847706710E+01 2.875316928535E+03
 1.018009381161E-01 2.274237680239E-01 4.662709270199E+00 6.521251634864E-01 -4.526610768832E-02 5.994009266519E+00 1.429294958648E-01 -4.033371179348E-01 -1.073528218501E+01 2.362271096696E+01 2.110649714401E+01 -8.314219875185E+01 -1.197811772890E+00 1.560745128545E+01 -8.190494427437E+01 9.646104974725E-02 -1.108879992016E-01 -9.606086619053E-01 9.906585725625E-01 5.423541181257E-01 6.704289684505E+00 -1.326329011358E+00 -1.087017815439E+00 7.409000729586E+00 -2.842332346999E+00 4.320571936153E-01 1.147216908216E+01 -2.480061213070E+01 -7.597737142317E+01 1.895213551533E+02
 -3.883358416195E-01 8.176307534723E-01 -2.208590093278E-01 -1.718430348300E+00 -5.887809476298E-01 4.790560403859E-01 -1.286090964993E+00 1.275834042070E-01 9.917741665993E-02 -2.361099687315E+00 1.428402037024E+00 7.210287154517E-01 -4.418860482665E-01 3.169900266094E-01 -1.548565024331E+00 1.693065864869E+00 9.509729590455E-01 -5.216840532123E-01 1.259174082160E+00 -5.880946877151E-01 -9.671187313176E-01 3.128958232480E+00 -5.889657536746E-02 -9.635284938470E-01 4.631689969631E-01 7.824717642735E-01 1.632970050914E-01 1.120219765524E+00 3.184255347314E-01 6.578508441751E-02 2.812274895361E+03
 2.200688528008E-01 -6.888537269864E-01 1.872889046560E-01 1.168713434392E+00 8.202330449070E-01 -2.533199213324E-01 9.974734607592E-01 -1.505181763393E-01 5.675370488527E-02 1.479207284272E+00 -1.044874060758E+00 -9.064017557821E-01 3.439963333348E-01 -1.663888859186E-01 1.408418911600E+00 -9.591588933270E-01 -6.436092308864E-01 6.147844184564E-01 -8.638019584680E-01 6.886830311089E-01 9.891671205056E-01 -2.687688745022E+00 -2.764992953542E-01 8.645022497001E-01 -4.231076512286E-01 -5.154549060886E-01 -2.423583269655E-01 -6.361772865655E-01 1.353258429442E-01 -3.144011111385E-01 1.410160309686E+02 2.706557459486E+03
 -9.723135787825E-02 8.092412107229E-02 7.428135613130E-02 5.283499857713E-02 -1.679456786596E-01 7.266376132213E-01 -1.089498263184E-01 3.144929912904E-04 -1.471076746903E-01 -7.925989842456E-03 -4.667737253976E-02 1.791268653458E+00 8.339623675517E-02 -7.305018211675E-02 -2.377630838346E+00 4.794453608633E-01 4.400313110633E-02 4.295900553616E+00 1.409535266914E-02 -6.970793124738E-02 -2.057941530994E+00 4.189924213031E-01 2.036243801948E-01 -9.667077207229E-01 2.660183170025E-02 6.585257254462E-02 2.704212820167E-01 -3.216552374118E-01 3.651864588253E-02 1.151598623613E+00 -4.621037209249E+01 6.662172882373E+01 1.908859686521E+02
 -1.084959337848E-01 4.321220245243E-01 -3.108302244237E-01 -9.702571343018E-01 -6.695131126165E-01 -4.037593523650E-01 -8.097086024252E-01 1.155986463840E-01 -1.676053919087E-01 -9.249607485194E-01 8.698799674263E-01 1.380077810966E-02 -3.784755225683E-01 6.407798577979E-02 1.115998731440E-01 5.113719245084E-01 5.877429608434E-01 -3.044403960180E-01 7.081994053685E-01 -7.568317464056E-01 1.526505116781E-01 2.438074046182E+00 4.200636641602E-01 -2.633323498670E-01 4.221654755118E-01 3.228329319277E-01 2.008178184108E-01 4.653548994742E-01 -6.345142186931E-01 -1.808915588318E-01 2.222112086005E+01 4.873860929751E+01 4.056217996400E+00 2.080496568447E+03
 4.659583332384E-02 -7.528934320607E-01 1.055844621548E+00 4.942260485156E-01 1.445808848116E+00 -1.091150528267E+00 8.608219063840E-01 -1.939444475328E-01 9.793119582442E-01 8.212548739315E-01 -6.912598305306E-01 -9.312517392563E-01 1.955421238298E-01 -1.530883953114E-01 6.070240975596E-01 -7.926655181800E-01 -6.018681636118E-01 1.690990405904E+00 -6.643464293187E-01 7.949311009762E-01 3.041646166170E-01 -2.545413714432E+00 -9.054832401861E-01 1.773883021787E+00 -3.701002816091E-01 -1.583771648111E-01 -9.044524711576E-01 2.780190196684E-01 6.005225673342E-01 -5.602338563507E-02 3.556056660597E+00 -4.981096650514E+00 2.609524918790E+00 -1.561758176498E+01 1.956738325285E+03
 9.577755377883E-02 -7.732365194521E-01 -5.597298036462E-01 2.154115224712E+00 1.340694428387E+00 3.876388678418E+00 1.668470214602E+00 -3.288776834377E-01 -7.631216776418E-01 1.079116725055E+00 -2.079103285503E+00 4.547578394180E-01 1.149079381651E+00 2.622432992795E-01 -5.255698166826E-01 5.321227561215E-01 -3.623935877915E-01 -1.427590899964E+00 -1.224897166549E+00 2.443126029262E+00 8.125045778836E-02 -5.895231585625E+00 -1.077457224024E+00 -1.918969734850E+00 -1.221443822674E+00 -7.457145197004E-01 5.396336863311E-01 -1.683888396273E+00 2.576788690816E+00 -1.358008158656E-01 7.076371221701E+00 -6.469729824569E+00 1.169202659130E+01 -1.268613275655E+02 8.629722594328E+01 1.845268065900E+03
 -2.035266071676E+01 -3.319075466058E+01 5.141373702678E-01 3.490136324356E+01 -9.840481448421E-01 -1.288430559355E-01 -3.241477826041E-01 2.512904187150E-02 1.109503689979E-01 -4.624859474739E-01 4.344652768058E-01 -5.844347448722E-01 -2.186202883918E-01 2.767256476366E-02 5.891509703054E-01 -1.250095716527E+03 -4.220809657078E+02 1.836192069899E+01 3.366837019060E-01 -2.893982696206E-01 4.318165738709E-01 9.045471192275E-01 1.303036348433E-02 4.957906427845E-01 1.838037586277E-01 1.769252646631E-01 -1.499496230546E-01 4.524931007381E-01 -2.472012291893E-01 -3.418884455202E-01 -2.277419528828E+01 3.951455691549E+01 -2.818589238876E-01 -1.151146021095E+00 1.964031362245E+00 1.763407735588E+00 2.758729809164E+03
 3.722841204936E+01 6.093723855965E+01 -7.195706598027E-01 -6.501314143463E+01 1.737339206471E+00 5.909227659663E-01 1.114735167756E-01 -2.498855228029E-02 1.094136582935E-01 1.970138423390E-01 -8.445223463661E-02 -2.068079110442E-01 -3.000689164570E-03 -4.848803064001E-02 3.250296192346E-01 -4.319516497275E+02 -7.030432884326E+02 1.036991224613E+01 -9.034398186697E-02 4.066576969640E-02 2.361698570261E-01 -2.011162166092E-01 -4.011315051330E-02 5.327566537536E-01 -1.937460207889E-02 -4.401031304899E-02 -1.143358575709E-01 4.522740900429E-03 -8.838490687892E-02 -7.461694104975E-02 -3.398158789285E+01 6.265243598841E+01 4.430159202110E-01 2.017665414471E-01 6.496496262695E-02 -1.813989276327E+00 2.429120522497E+01 2.760314030208E+03
 -7.677359544149E-02 -4.357229120446E-01 9.437901257424E+00 1.691487682154E+00 -9.756829134713E-02 1.030067973662E+01 6.709807183062E-02 -1.212962817925E-01 -4.156489466006E-01 -8.190655238200E-02 -1.592929536117E-01 1.337433336691E+00 1.777692717487E-01 9.438052380280E-03 -1.618397723193E+00 1.692554823818E+01 1.050367978388E+01 -8.240963365506E+01 1.311710452714E-01 3.857673515240E-01 3.272818462113E+00 -2.392048695278E-01 4.075753006546E-02 3.071184143652E+00 -1.147563987142E-01 -2.964770916956E-02 4.322726177938E-01 -5.370835811666E-01 2.639982164630E-01 6.927342875534E-01 1.345617594212E-01 -4.347625900313E-01 1.020362575116E+01 -1.733469703206E-01 -1.222270070975E+00 2.854926600680E+00 -3.856216224734E+01 -4.865418469743E+00 1.881385749715E+02
 4.081072433421E-02 -2.332799557010E-01 6.160294320875E-02 -1.781120256522E+01 -2.782742014955E+01 4.629550746878E-01 1.289850980207E-01 -1.967410356595E-02 1.348953255362E-01 3.555556600179E-01 -5.167065499572E-02 -1.262892800484E+00 -9.201793855429E-02 -6.260511484356E-02 1.808807610755E+00 -4.853020242511E-01 -1.917339762469E-01 4.366013594171E-01 -8.847936959424E-02 -8.662893707325E-02 1.431162655659E+00 -2.277391860602E-01 -2.129595283493E-02 1.079202882669E+00 2.352716536936E-02 -1.183838028014E-01 -2.484459074381E-01 1.412676677903E-01 -3.943436419389E-01 -6.758514216368E-01 3.849370690119E+01 -6.738451073868E+01 -2.613079313010E+00 -1.720794397662E+01 3.759833215420E+01 -1.001591479346E+00 3.415649485982E+01 5.589307017426E+01 -7.168788754679E-01 2.892462345204E+03
 5.090722432241E-02 7.786968769282E-02 5.846316145165E-02 3.421588389408E+01 5.333834654136E+01 -2.574185217376E+00 7.308188508458E-02 -1.877757526543E-02 -9.215344895054E-02 1.445510635341E-02 -1.643145563146E-01 1.080106906570E+00 1.215209691526E-01 -2.586419548501E-02 -1.517958624042E+00 7.427683492839E-02 -9.873198277165E-03 -4.520221968762E-01 -1.049608076735E-01 1.790263864202E-01 -1.260495763592E+00 -1.235235594869E-01 5.009984595107E-02 -5.167889395367E-01 -8.072311939197E-02 3.498849543753E-02 1.591368353165E-01 -2.269238544582E-01 3.037738109878E-01 6.668285553798E-01 -9.559581115674E-01 1.587825981120E+00 3.190190674928E-01 -2.828578903647E+01 6.203062514461E+01 1.294722014113E+00 -7.947322895516E-01 -1.123877512340E+00 6.340488122448E-01 -2.437631649484E+02 2.620635988197E+03
 6.475610919696E-01 -4.064621615621E-01 9.475988756701E-01 -2.418253212055E+00 -2.433855930325E+00 1.818021583452E+00 -2.910032939154E-01 -4.467378873249E-01 1.370241131338E+00 -1.090367974703E+00 4.979291428114E-01 -2.832964085971E+00 -1.045428119001E+00 -6.090341196978E-01 3.150390964480E+00 -1.690167707478E+00 6.248280225578E-02 -4.928802581248E+00 6.114166754377E-01 -3.518970392978E-01 2.327328314362E+00 3.426688094865E+00 2.978057952911E-01 7.326349259607E+00 3.653734795011E-01 1.042915070986E+00 -1.256795806329E+00 2.525167776833E+00 -6.203353524715E-01 -1.324489205483E+00 -2.654350653040E+00 2.837292765449E+00 9.750608158952E+00 1.718740107940E+00 1.684048862556E+00 5.641131839417E+00 7.356937958607E-01 1.584800533069E+00 2.498763087645E+00 -1.791535590920E+02 3.344672065951E+01 2.023812435447E+02
 4.298232671794E-01 -9.614245161934E-01 4.555920661842E-01 1.131426203743E+00 4.081634931234E-01 -2.561716352621E+00 1.028201032641E+00 -9.748899872392E-02 2.442987748802E-01 2.535662892224E+00 -1.008470409620E+00 -1.652940054471E+00 6.923169889830E-02 -5.141957888808E-01 2.856716429349E+00 -2.352500596169E+00 -8.298221956690E-01 1.417487737840E+00 -1.075258306025E+00 -1.026623558082E-01 1.717150153569E+00 -1.771408539969E+00 3.733351886961E-01 2.348228853830E+00 -1.252405868709E-01 -6.933350518230E-01 -5.390903203883E-01 -6.333690705768E-01 -1.431000422090E+00 -3.456518714667E-01 -1.061866401150E+03 4.006293140946E+02 2.220459223541E+01 -2.892323873473E+02 -1.410659350407E+01 2.146046473590E+00 1.873967103293E+00 -8.051374824287E-01 -1.195611952610E+00 -1.540619333397E+00 1.534875593656E-01 5.183865850162E+00 2.932366015249E+03
 1.043399936107E-01 4.658622175723E-01 2.074049916040E-01 -1.461893171002E+00 -1.889774235912E+00 -2.210090086666E+00 -1.222604984246E+00 2.667104524629E-01 1.247912043683E-02 -2.083082972977E-01 1.229896854165E+00 1.766081464098E+00 -7.262428844244E-01 -3.815133964274E-01 -1.898654955329E+00 -5.645321525029E-01 7.445253778306E-01 -1.672167651739E-01 7.028297123265E-01 -2.035515587561E+00 -2.173927566829E+00 5.035187266045E+00 1.561200218569E+00 1.531023377372E-01 9.723023425936E-01 4.065302810295E-01 1.603973257087E-01 3.952091655836E-01 -2.444953355219E+00 1.451915283673E+00 3.794206260921E+02 -6.641313660437E+02 -4.093480279387E+01 6.378041088522E+00 -9.844947014319E+02 -8.362510190325E+01 -1.757414366565E+00 2.998070641766E-01 -1.510118134048E+00 -5.368557743908E-01 5.208440134902E-01 6.014156556443E-01 2.027872308365E+02 2.376998863150E+03
 -8.746566955351E-02 -1.721375090360E-01 7.649779455871E-01 -6.760452151136E-01 3.731295341320E-01 -1.883549222075E+00 -1.863667149915E-01 -5.836018588842E-02 7.733580928873E-01 -5.856106284070E-02 3.875972044166E-01 -4.339699717657E-01 -3.480124173425E-01 -2.335531148217E-01 2.288933734474E-01 -3.100051277414E-01 -2.319040811650E-01 1.323040132326E+00 1.960356671068E-01 -4.453279209743E-01 -1.169637040749E-01 9.968088478145E-01 -1.070716099370E-01 1.516503825748E+00 2.482887631642E-01 2.622819086330E-01 -6.375141924962E-01 7.894794878626E-01 -6.200488772477E-01 1.587627401459E-01 2.295526643536E+01 -3.485181611356E+01 -7.932021787828E+01 6.355371013569E+00 -1.141393000505E+02 -1.560880358741E+02 -4.556217759750E-02 5.664778458550E-01 2.756501444210E+00 1.118978484255E+00 2.130547374142E-01 -2.030292083742E+00 3.772076466121E+01 2.191725019616E+02 2.622846041815E+02
 1.340234487223E-01 -9.343575786657E-02 4.682201738800E-02 7.912260894752E-01 3.889652661651E-02 1.143098346246E+00 4.366059460222E-01 -4.366682313014E-02 -2.344121845751E-01 6.259300057855E-01 -5.941594809280E-01 8.685476761248E-01 2.942075215379E-01 -5.620047379335E-02 -9.614725642695E-01 -1.901788370413E+01 3.416302883988E+01 -6.955111270615E-02 -4.533389524249E-01 3.888737399097E-01 -7.986145318184E-01 -1.186289226725E+00 4.242554668564E-02 -5.889565345752E-01 -2.504901471394E-01 -2.226097675048E-01 2.258620342777E-01 -6.367698116950E-01 3.356660770882E-01 5.305242532088E-01 -1.385388887290E+03 -4.996719077021E+02 1.839851670594E+01 1.914665073222E+00 -2.917221262065E+00 -2.631486942697E+00 -1.146004391412E+03 4.332423175062E+02 1.766561896503E+01 -4.149409698535E+02 -3.725757937946E+01 1.223921728479E+01 -2.291240800087E+01 -3.172502717857E+01 7.297994012992E-01 2.835551490206E+03
 -9.988776693302E-02 1.385964566151E-01 5.686399296097E-02 -5.599326888950E-01 -1.256164269563E-01 -9.947802272957E-01 -3.387323422393E-01 3.457746518865E-02 1.381319271725E-01 -5.339804374122E-01 4.325407219491E-01 -3.742728632976E-01 -1.947912935286E-01 5.618870664874E-02 4.054246961446E-01 -3.112788867761E+01 5.777883411798E+01 6.726820437322E-01 3.422120428294E-01 -2.650286458110E-01 4.318927034584E-01 9.098694890374E-01 -2.138334522732E-02 1.912263085241E-01 1.699687018322E-01 1.880974135790E-01 -9.216213648416E-02 4.395829953501E-01 -1.471385724750E-01 -2.806166576805E-01 -4.880935269008E+02 -7.709934568476E+02 -4.172033598679E-01 -1.059290638185E+00 1.503751661370E+00 3.008546373310E+00 4.169199885277E+02 -7.106791788051E+02 -8.263309678625E+00 -5.888998199583E+00 -1.238547355994E+03 -9.323665820254E+00 3.711244730217E+01 5.920923780244E+01 -3.035570880539E-01 8.211987251090E+01 2.603505561818E+03
 -1.543821690584E-01 -2.159978780327E-01 4.624573899015E+00 -1.251513827928E+00 1.241139009996E+00 -9.511427541717E+00 -1.883890003758E-01 -1.623596964290E-01 4.601320665093E-01 -5.925358681002E-01 6.547910592044E-01 -2.960375241777E+00 -4.091646233430E-01 3.516921912367E-02 3.801987925202E+00 1.103815958668E+00 -4.046736559830E-01 8.222706983550E+00 6.075039032076E-01 -1.351060322601E-01 3.224758214067E+00 2.536161945969E-01 -7.191422339769E-01 1.930544846911E+00 1.464758431315E-01 1.830675706163E-01 -5.889233108849E-01 9.977797433742E-01 -4.177956167270E-01 -1.825400838165E+00 1.673585571749E+01 -1.217890754120E+00 -8.743471993230E+01 1.101898413587E+00 -7.995222620096E-01 -1.296159560810E+01 1.775611647980E+01 -8.494349383802E+00 -7.864031194415E+01 1.685881283196E+01 -7.895921984273E+00 -6.904775275269E+01 5.048957448670E+00 6.648284916640E+00 6.261530208898E+00 -4.567543951258E+01 1.741909952150E+01 1.865888209940E+02
 1.300489252093E-01 -2.937480610035E-02 -3.303012056733E-01 1.978054372615E+00 3.589365839459E-01 3.600701705023E+00 9.829414937879E-01 -8.516506330509E-02 -7.180010996318E-01 8.929807477638E-01 -1.401216300474E+00 2.389399003416E+00 8.749518911434E-01 1.120423093257E-01 -3.084275830828E+00 2.781779106894E-01 -6.298404061633E-01 -1.838441334960E+00 -9.467012291658E-01 1.321086667258E+00 -2.324789894735E+00 -3.395285681204E+00 -2.743549409472E-01 -2.430071562070E+00 -7.463488268660E-01 -4.738580303803E-01 7.038242878521E-01 -1.546261809268E+00 1.670105101692E+00 1.248589090937E+00 2.654116806726E+00 -3.870948698391E+00 3.963374569880E+00 -9.784789133636E+02 -3.241139235045E+02 9.528556312131E+01 2.006245579750E-01 -6.322137708243E-01 2.677279882493E+00 -1.546217442810E+03 5.812428907138E+02 9.967988336837E+01 1.648058736360E+01 1.507405825338E+01 -6.217374384902E+00 4.440517294102E+01 -4.516381913466E-01 -7.560945130158E+00 2.816415433023E+03
 -5.309745297318E-02 2.492384964567E-01 -4.898215893547E-01 1.864696653851E-01 -1.971350122666E-01 1.274168449595E+00 -4.793805547065E-02 1.773124862667E-02 -4.265346598792E-01 -3.424192338408E-01 -5.060209881589E-02 2.242132867574E-01 1.398103711818E-01 1.757061603330E-01 -1.943177216265E-01 5.571119455865E-01 6.136061901540E-03 -7.698620969828E-01 8.591443705089E-02 2.341456598939E-01 9.334846882891E-02 -2.738065148147E-01 -3.289688683209E-02 -9.794275454390E-01 -1.168089884687E-01 -2.048758988596E-02 3.790399215627E-01 -2.533916539784E-01 5.062963691989E-01 -1.872375892687E-01 -2.400683350986E+00 -3.922803255103E-01 -6.521911840748E-01 -3.315215449505E+02 -4.733625192087E+02 3.451301835677E+01 -4.464796967091E-01 -1.717664148058E-02 9.866813144321E-01 6.060128148618E+02 -8.963762518600E+02 -5.070803738734E+01 -3.858278212387E+01 1.410852562847E+00 6.861672987973E+00 7.389015475306E+01 -1.999455749117E+00 -5.440248956677E+00 -2.853523131971E+02 2.348709062878E+03
 3.234159472734E-01 3.994082662425E-01 -1.381492245880E+00 2.377611378783E+00 -5.556392240510E-01 9.832937020597E+00 6.185241222624E-01 -2.482912362777E-02 -1.866597835492E+00 9.520822136274E-01 -1.321554172901E+00 3.553321595372E+00 8.341764713524E-01 5.099443588117E-02 -3.690220155160E+00 4.947350211009E-01 -2.012313374244E-01 -3.663908188881E+00 -7.194280228391E-01 7.996970740393E-01 -2.787654301068E+00 -1.784833742936E+00 7.503917720705E-01 -4.186849990102E+00 -5.662579770376E-01 -5.415312339573E-01 1.681767805386E+00 -2.338753169425E+00 9.370463946931E-01 1.580106068501E+00 6.876917305169E-01 -2.385522173766E+00 -7.268130038597E+00 1.036581942522E+02 2.687289398537E+01 -1.419667359506E+02 -1.203884978902E+00 -1.171781086016E+00 8.660369939015E+00 1.092370709030E+02 -4.707943011573E+01 -1.079743877669E+02 -1.694557921844E+01 -8.900287416393E+00 -2.046727979317E+00 8.931011385794E-01 -1.532603855086E+00 5.238976867662E+00 -2.266766483027E+02 6.425110540748E+01 2.566977633476E+02
 -1.023241501091E-01 3.279632249095E-01 2.220539396349E-01 -1.251303113046E+03 4.746075652073E+02 1.494667781458E+01 -4.357346501120E-01 7.019079317100E-02 7.498340787370E-02 -6.239887886689E-01 4.225288611325E-01 1.338635862742E+00 -1.091329940788E-01 1.495673929987E-02 -2.029933173626E+00 4.200517970000E+01 -6.350355296193E-01 -5.868234379203E-01 3.279356650227E-01 -3.081776868352E-01 -1.738899831499E+00 -1.942502905752E+01 3.914018651556E+01 -1.552127745027E+00 1.873933957741E-01 2.904067569782E-01 1.046632806095E-01 2.161464516735E-01 4.273075346987E-02 8.029374461709E-01 -3.120515174724E+00 2.733659521667E+00 1.906558328052E-01 -2.387884581610E+00 3.398121794344E+00 4.773079334425E+00 -8.214889080804E-01 3.031778872051E-01 1.368731336342E-01 -1.056883088680E+03 -3.320416163764E+02 5.478164590059E+01 2.843407078883E+00 -3.076429341553E+00 -7.006096332779E-02 2.767538322626E+01 -1.237349891267E+00 -2.000482927016E+00 -1.806475592963E+01 -3.448548813561E+01 1.752405536879E+00 2.691870015502E+03
 6.351848939744E-02 -2.381886045119E-01 2.965463923786E-01 4.952472733851E+02 -7.871521854166E+02 1.292967335659E+01 3.702547179231E-01 -2.930981144323E-02 1.207215360257E-01 6.577682198353E-01 -4.170384575454E-01 4.140886403647E-01 1.621824107305E-01 -9.983991329775E-02 -3.998094712103E-01 6.480709090688E+01 -1.976987749510E+00 -9.109679435874E-01 -3.986470848942E-01 1.905920882239E-01 -4.821784792264E-01 -3.357774204416E+01 6.125703806065E+01 -5.462881353100E-01 -1.407818012694E-01 -1.853187563522E-01 -9.135123889424E-02 -3.043973566254E-01 4.491552967644E-02 3.898057634963E-01 2.442496439228E+00 -2.073200025409E+00 2.438603377273E-01 1.109171013533E+00 -1.122308677581E+00 -3.957422608249E+00 4.871724434130E-01 -1.666922053991E-01 -3.835493740918E-01 -3.533873132357E+02 -6.055534242576E+02 3.100810169737E+01 -2.242569967962E+00 2.396087061396E+00 9.691383292989E-01 -5.240662539964E+01 1.539824718323E+00 2.715121677385E+00 3.790406707970E+01 6.524478432762E+01 -3.425003012219E+00 -7.427728601443E+01 2.818373567942E+03
 -1.379865553328E-01 7.872257992141E-01 5.880059204966E+00 1.294652927965E+01 1.392251621900E+01 -8.388870278956E+01 2.576861597873E-01 2.733868874415E-01 5.618814236566E-01 1.010593579699E+00 -1.771872137881E-01 9.018393243094E+00 3.726122783952E-01 -2.171651836799E-01 -6.298527570904E+00 -1.075834387033E+00 -6.462610314034E-01 7.848047185350E+00 -7.926673545025E-01 -3.227282230103E-01 -5.584611205901E+00 5.258376072065E-01 -1.518057975531E+00 9.152307827825E+00 -1.005704364290E-01 6.575589687452E-02 -8.492207190265E-02 -4.719728874540E-01 6.922076496566E-01 3.157542013826E+00 1.103304534037E+00 5.870073720118E-01 5.683057739454E+00 -1.100197852314E+00 4.001027315935E+00 4.219486643494E-02 -1.385096101571E+00 -5.180391047310E-01 -8.183490648192E+00 5.630043521064E+01 2.636563730433E+01 -7.532749395273E+01 2.241761416731E+00 3.936192432453E+00 3.505171472815E+00 -2.635610788366E+00 2.852669385255E-01 3.677386030066E+00 2.570471000063E+00 8.479632967281E-02 8.926742861283E+00 -7.989991637586E+01 -1.157923975885E+02 2.007600270362E+02