#BIOSYM hessian 1
@Type: Hessian Update
@Units
 distance: 	A
 energy: 	Kcal/Mol
#header
@natom 70

#label
C1      C2      C3      C4      C5      C6      C7      C8      C9      C10     C11     C12     C13     C14     C15     C16     C17     C18     C19     C20     C21     C22     C23     C24     C25     C26     C27     C28     C29     C30     C31     C32     C33     C34     C35     C36     C37     C38     C39     C40     C41     C42     C43     C44     C45     C46     C47     C48     H49     H50     H51     H52     H53     H54     H55     H56     H57     H58     H59     H60     H61     H62     H63     O64     H65     H66     O67     H68     O69     H70

#element
C  C  C  C  C  C  C  C  C  C  C  C  C  C  C  C  C  C  C  C  C  C  C  C  C  C  C  C  C  C  C  C  C  C  C  C  C  C  C  C  C  C  C  C  C  C  C  C  H  H  H  H  H  H  H  H  H  H  H  H  H  H  H  O  H  H  O  H  O  H 

#matrix
210
 2.789316055965E+03
 -1.936553061382E+01 2.804308162567E+03
 -2.012059974928E+01 -2.181279021128E+01 1.924998792020E+02
 3.687103570922E+01 6.449443708414E+01 -1.207255507004E+00 2.799867814185E+03
 4.408679173336E-01 -3.208939149175E-01 1.454405530441E-01 -3.044885080611E+01 2.745473247206E+03
 -1.344745615598E-01 -2.859070438145E-03 8.517115560103E+00 -1.714175833555E+01 -3.476456319691E+01 1.911486049438E+02
 -1.984969090531E+01 3.454425687896E+01 -4.933861950033E-02 -1.832244386523E+00 9.091098645864E-01 4.324474259109E-01 2.835423509562E+03
 -3.269789612771E+01 5.950547771576E+01 -6.478404598810E-01 6.849096041037E-01 -2.903332423223E-01 -2.928225368121E-02 2.875445985180E+01 2.755069473101E+03
 1.402280590128E-01 -5.675247193608E-01 9.301466811324E+00 1.614092026306E-01 -1.944482707963E-01 2.321379693165E-01 -9.939954171999E+00 -1.270991639268E+01 1.901457688617E+02
 3.692514664614E+01 -6.758864734861E+01 6.615957665060E-01 -2.021081604775E+01 3.575763882533E+01 -2.522982931510E-01 4.016408004214E+01 6.898857212036E+01 -1.129311669465E+00 2.796951805539E+03
 -5.107982964602E-01 1.012759721337E+00 -1.920631953450E-01 -3.203411190589E+01 5.871671274764E+01 -9.159403673649E-01 -5.894690374318E-01 -1.079231397628E+00 -2.515293312804E-02 1.329218131227E+01 2.809644241516E+03
 -1.477423259268E-01 8.134739641868E-01 8.795820776266E+00 -5.484502029453E-02 -1.187593137270E+00 9.122512108891E+00 9.717414118944E-02 -3.725490950006E-02 1.017905321402E+01 -9.844683981598E+00 -2.706584649576E+01 1.958813823004E+02
 -5.657365482211E-01 -2.034191877815E-01 7.043385390617E-02 -1.523567773466E+00 6.898817907228E-01 -1.647659218258E-02 4.991906652404E+01 -8.351505742467E+01 1.103565011104E+00 -2.165348103113E+01 3.722344992761E+01 -1.770763539065E-01 3.163117469680E+03
 -9.534057677949E-02 -5.237720067692E-01 3.365166352052E-01 -9.631584518919E-01 4.040597976798E-01 -2.441630953060E-01 -9.306320844460E-01 1.134241259137E+00 5.844934961322E-02 -3.494450679450E+01 5.974694094272E+01 -6.259977910448E-01 1.568535233338E+02 3.348840736303E+03
 -2.030131751390E-01 -3.138094578043E-02 7.587700680695E-01 -3.186659615614E-02 -4.169970631929E-01 7.561384194391E-01 2.054935546215E-01 6.031161886919E-01 1.288405227981E+01 3.118340518689E-01 -9.013836475409E-01 1.122841747731E+01 -3.657997193920E+00 -2.685674482488E+01 1.965234513734E+02
 -1.220393450109E+03 4.505863886924E+02 6.440346434944E+00 -4.598895186732E+02 -1.655374947273E+01 1.904753852286E+00 4.012936110781E-01 1.069559826439E-02 1.067639752413E-01 4.331930065623E-01 -6.641562102419E-02 3.955493244718E-01 4.172503737309E-01 2.722137063777E-01 1.339418158283E-01 2.827407376050E+03
 4.431504389512E+02 -7.431591343704E+02 2.782897616758E+00 -1.586554436999E+01 -1.404820081802E+03 1.645636327601E+01 -5.237195723121E-01 5.152855483838E-01 5.718276593631E-02 -7.230997050819E-02 8.709777366434E-02 -7.335067466679E-01 -4.677266651127E-01 -3.846971521040E-02 -8.300428236338E-02 4.153561274973E+00 2.751424172015E+03
 5.821142641820E+00 2.546196978168E+00 -8.280176340891E+01 3.466047104453E+00 1.750275225136E+01 -8.007134190605E+01 6.834585771745E-02 5.805294835122E-02 4.761040856473E+00 -3.470437018773E-01 6.159023593631E-01 -8.557380092798E+00 -4.380110507701E-02 6.176333312935E-02 3.935837481093E-01 -2.798974146101E+01 -3.124867481060E+01 1.921714762818E+02
 -1.208029930753E+03 -4.102044101131E+02 1.109316079526E+01 2.770488901296E+00 -1.362362081822E+00 -6.016480386095E-01 -1.246058076145E+03 4.474658956940E+02 3.203800037996E+00 -4.709456572150E+02 -1.413127550168E+01 1.539363420438E+00 6.399925377974E-01 2.961324082354E-01 2.780293784177E-01 -2.013931689150E+01 -3.162978911263E+01 9.905672942285E-01 2.811457981281E+03
 -4.088232028705E+02 -6.936699739480E+02 8.684341170439E+00 1.064370050286E-01 -1.489337817426E-02 -2.493815552945E-01 4.576458747923E+02 -7.435610723695E+02 2.394101356252E+00 -1.754559393558E+01 -1.457017627797E+03 1.299150926721E+01 3.208137998738E-02 -5.493162364129E-03 -4.100061745273E-01 3.482537711380E+01 5.848494107576E+01 -7.315869867134E-01 -2.426163849428E+01 2.773529463742E+03
 1.186367951322E+01 7.378599856437E+00 -8.154331837933E+01 1.184830780929E-02 1.445236818033E-01 -8.884279096064E+00 2.205466292997E+00 2.641982971175E+00 -8.354055773322E+01 2.137636775245E+00 1.314088272537E+01 -8.259668450778E+01 -3.858426841407E-02 2.810789684017E-01 -1.055968122549E+01 -1.886631124806E-02 1.035753442642E-01 8.417291117826E+00 -1.613170902683E+01 -2.336676842543E+01 1.926748842956E+02
 6.909034184950E-01 5.797541779183E-01 2.851415123458E-01 -1.223952629848E+03 -4.172030605459E+02 1.254792807107E+01 6.779462041200E-01 1.254871253100E-02 1.190898671857E-01 -1.206119028581E+03 4.386467065270E+02 5.434832816750E-01 4.818656231996E-01 4.815304313577E-01 2.245353434377E-01 3.592365203936E+01 1.368716575249E-01 -4.452716320842E-01 3.926266796365E+01 -7.657373061151E-01 9.023212972599E-02 2.794093031207E+03
 2.515129852265E-01 -2.029810769880E-02 1.034789426957E-01 -4.192197456719E+02 -7.007957697764E+02 1.106153259444E+01 2.700428445048E-01 -2.174731823412E-01 1.998418202603E-02 4.419385215512E+02 -7.348330327433E+02 6.559796553123E+00 2.272749533069E-01 -1.548552968292E-02 2.339260412593E-02 -6.623372506679E+01 1.498285243469E+00 2.494652188387E-01 6.670802733473E+01 -1.025327960500E+00 -4.017801308918E-01 1.487277687537E+00 2.789288164231E+03
 -4.154232095489E-01 -3.735157954606E-01 -8.897932063362E+00 1.381880732997E+01 9.869151280470E+00 -8.244685852264E+01 -1.201411483021E-01 3.460746725673E-01 4.551029842351E+00 -8.808748503203E-02 6.048774933275E+00 -8.221540078842E+01 1.414232260022E-01 1.474619527076E-01 4.317963852988E+00 3.775567346920E-01 3.088377134579E-01 8.591202570863E+00 -5.066113110112E-01 -1.841395453771E-01 8.909684383480E+00 -1.472047137100E+01 -3.714105365491E+01 1.936522194164E+02
 2.250836736321E-01 1.768964804416E-01 1.084727082628E-01 7.060839246158E-01 -3.093932149113E-01 -1.653129493379E-01 -1.262686655177E+03 -4.504455965083E+02 5.295292083788E+00 1.328549940070E-01 3.951425232593E-02 -2.292536018203E-01 -6.021331591199E+02 -2.645675609402E+00 3.066274365177E-01 -2.277669256908E-01 1.098417246115E-01 1.012506351499E-01 -2.213057107341E+01 -3.746976962510E+01 5.601982841572E-01 -2.706713082475E-01 -9.362853594034E-02 1.384043955624E-02 2.643889576679E+03
 1.113517634145E-01 4.610276497187E-01 -8.945074369696E-02 9.040849226575E-01 -4.470289693167E-01 2.671631271683E-01 -4.657838024683E+02 -7.771251860940E+02 5.436352960385E+00 3.303251669132E-01 2.084010699074E-02 3.108810237328E-02 -2.277366254099E+01 -1.788633223742E+03 1.453132817745E+01 -2.914973853787E-01 3.586467745291E-02 7.584569200410E-02 3.602411288772E+01 6.206245970354E+01 -6.013057527681E-01 -4.098899230204E-01 -7.332606580740E-03 -2.377550750291E-01 2.016905181567E+02 3.003866426520E+03
 -6.966587061075E-02 2.092429178879E-02 4.265122999431E+00 -8.147748105835E-02 2.514796961903E-01 -3.442533720835E-01 6.054414791075E+00 5.108712063574E+00 -8.040996435430E+01 3.736049837516E-03 1.908565038271E-01 -1.099513514688E+01 2.797075753892E-01 1.427220121946E+01 -9.573048900195E+01 -3.781392855614E-02 1.561815241362E-01 -1.948065125089E-01 -2.459290458218E-01 -2.667956011512E-03 9.998590746072E+00 -2.574998684567E-01 3.250043133124E-03 1.229709444823E-01 -5.102885663790E+00 -2.333103978305E+01 1.743872795700E+02
 2.517107084148E-01 2.084435212502E-01 -1.992849665023E-01 7.557859991978E-01 -4.028220424540E-01 4.593190979564E-01 2.636764623783E-01 -1.139089922818E-01 3.383185296554E-02 -1.237092171048E+03 -4.391036013349E+02 8.574101833175E+00 -1.226641749034E+03 4.398326672414E+02 -1.801433077027E+00 -2.318484725480E-01 1.361942420835E-01 3.257099881417E-02 3.932682331240E+01 -6.002434442508E-01 -4.477523481930E-01 -2.080648670576E+01 -3.423291939795E+01 4.293718695456E-01 5.046849242281E+01 -8.115787374642E-01 2.303575810700E-01 2.829799088640E+03
 -4.677365664956E-01 2.420453558250E-01 -2.874460819184E-01 -9.029380018451E-01 6.087275157875E-01 1.105955170394E-01 -2.309329330346E-01 2.966163194961E-01 5.781384529262E-02 -4.389403744541E+02 -7.349939387879E+02 8.402912727716E+00 4.430260267521E+02 -8.012955159748E+02 6.177186235275E+00 1.161126054805E-01 -5.445564856147E-01 -2.676515587612E-01 -6.821716574017E+01 9.725156017740E-01 2.619265134236E-01 3.564263257600E+01 5.955234338469E+01 -2.610377562009E-01 8.126897980448E+01 -1.352126116525E+00 8.354028876719E-02 -3.880026327972E+00 2.904404093331E+03
 3.212871634342E-01 1.436706004709E-01 4.265220095149E+00 1.152118503302E-01 1.034121656492E-01 4.172631682043E+00 -2.528740641651E-01 -3.200085966656E-01 -1.115865463394E+01 8.879108080038E+00 8.204027341951E+00 -8.760401178105E+01 -2.180133461714E+00 6.181621411752E+00 -8.786766124589E+01 -1.995055219469E-02 -3.293781153626E-02 -2.232384962237E-01 2.188840642530E-01 2.824705503536E-01 9.681679305083E+00 -5.196196031929E-01 -2.042591732373E-01 9.287445214289E+00 -5.828955767700E-01 7.277501696252E-02 1.178326955984E+01 -7.326419179478E+00 -3.133766974443E+01 1.998622067385E+02
 -7.671647519725E+00 -8.666626757099E+00 1.592016879682E+00 -3.890922230097E+01 2.042743739216E+01 -7.677898292112E-01 -8.666473891532E+00 6.651444776419E-01 1.996120005713E+00 -6.114495413764E+00 7.247032107790E-01 1.873342004546E-01 -5.429409680988E+00 -6.389181420887E+00 2.953199097947E+00 5.249579285558E+00 -1.211407286654E+01 -1.115068976626E+00 1.148066644448E+01 9.744776413586E-01 -4.638017747711E-01 1.424630927588E+01 3.747614788130E+00 -1.258033343094E-01 2.938408237341E+00 5.863638807808E+00 -2.137664794695E+00 2.931776660272E+00 -1.813904293473E+00 -1.006077313504E+00 2.652404737630E+03
 2.487697752922E+00 3.290871520166E+00 -2.943480985316E-01 1.553576657477E+01 -9.220242491605E+00 5.299189375266E-01 3.540900211422E+00 -3.237778288646E-01 -3.344838335506E-01 2.359195128978E+00 -7.264925177383E-01 -2.805444198680E-01 1.795195982204E+00 2.847723832347E+00 -3.789252350324E-01 -8.242714390830E-01 6.634977391403E+00 4.469686418927E-03 -3.985635246834E+00 2.024733219089E-01 -8.604953837144E-03 -5.651465194993E+00 -1.375749192551E+00 2.388907582027E-01 -9.836673040462E-01 -2.438164142098E+00 2.431025931554E-01 -7.467244416860E-01 5.193365077312E-01 3.856213469786E-01 6.202482279780E+01 2.626506131184E+03
 -2.555059388050E-01 -9.753662307043E-01 2.359187963145E-01 -6.037600840632E-01 1.826983810716E+00 8.894891087928E-01 1.744314250292E-01 -1.129888765061E+00 3.658705882022E-01 -9.062288980691E-01 -1.298479473713E-01 -1.732020756159E+00 -4.933128082664E-01 -5.401073546861E-01 -1.031552422563E-01 2.369646374502E+00 1.243469957904E+00 3.544826674432E+00 5.680289014210E-01 8.294878449219E-01 3.042766970808E-01 7.620703877053E-02 -8.907039691599E-01 -2.966964113187E-01 -2.808609086320E-01 5.252010069586E-01 5.259781501121E-01 5.684334626247E-01 6.842458367705E-01 -5.099373034221E-02 -3.987269000187E+01 -4.269132679027E+01 2.074674742370E+02
 -3.546257496490E+00 -1.897089111627E+00 5.725327728612E-01 -1.607375702250E+01 9.251629507616E+00 1.448542195321E-01 -3.509346276100E+00 1.657896694417E+00 8.268047269439E-01 -1.375054119163E+00 6.768291332144E-01 -3.038661487990E-01 -2.531547896033E+00 -1.739216822331E+00 1.311428310156E+00 5.640123372749E-01 -7.013465269016E+00 -2.315811740826E-01 4.509995067023E+00 -5.089949157655E-01 1.424930449934E-02 4.957687355366E+00 2.170050946807E+00 -2.255622307912E-01 9.369877370006E-01 1.505308769258E+00 -7.245735176667E-01 9.203823672958E-01 -1.862386408206E+00 -4.596483447567E-01 -4.322938797507E+01 1.221745961743E+02 4.801689767297E+00 2.680859500434E+03
 -4.363090329628E+00 -4.976507687962E+00 1.157172060823E+00 -2.824708399425E+01 1.628975661923E+01 -4.382825100701E-01 -5.878637924111E+00 1.582576899040E+00 1.834835123778E+00 -3.548180272747E+00 1.350250993679E+00 5.148019994886E-01 -3.063948603583E+00 -3.936519713889E+00 3.341379786730E+00 8.242866526077E-01 -1.199174588009E+01 -9.389987473068E-02 7.043957759741E+00 -5.946589776176E-01 -2.016296875155E-01 9.942686670251E+00 2.962885079550E+00 -1.862728379706E-01 1.519345909093E+00 3.456252591959E+00 -2.172377933903E+00 1.209886852743E+00 -2.072772311489E+00 -1.554468219860E+00 -1.746833303011E+02 8.399637479435E+01 3.641711546573E+00 1.796817695543E+02 2.776827539355E+03
 1.474141040044E+00 4.198019068530E-01 1.687537919265E+00 5.549342235228E+00 -3.001257824933E+00 -1.156442136353E+00 1.082652493877E+00 -1.520147795957E-01 2.287545538102E+00 8.269231446402E-01 -3.607231037310E-01 -6.418875591423E-01 1.018576246684E+00 6.805232546646E-01 3.539638740964E+00 -1.018725237685E+00 7.198124435348E-01 -1.198565592862E+00 -1.362821405449E+00 -1.362162490930E-01 -3.170660252204E-01 -1.597006474438E+00 5.719409679388E-01 4.305221909447E-01 -4.821286173365E-01 -4.585159210934E-01 -2.810894443888E+00 -2.836609067924E-01 1.402139080990E-01 -7.288131086798E-01 1.171977137324E+01 -9.841397181517E-01 1.157064802750E+01 -4.355252866042E+01 -6.072707017656E+01 1.680773538464E+02
 -2.111272219323E+01 -3.415337583176E+01 2.563798452293E-01 3.695484174380E+01 3.695038732544E-01 2.094313776323E-01 -4.539494948772E-01 1.483201182337E-01 -3.047022513238E-01 -1.401482884798E-01 -1.734810680183E-01 -3.975607275061E-01 -5.933906362405E-01 -1.451843126599E-01 -6.268015814924E-01 -1.263411100474E+03 -4.343795568774E+02 1.857497163817E+01 8.352024708128E-01 1.621126889279E-01 -3.096962177047E-01 3.636060763590E-01 3.799002865014E-01 3.805888939102E-01 2.244162343921E-01 1.356151008130E-01 2.594124642570E-01 3.147473267015E-01 -2.424956079747E-01 3.604901696494E-01 -1.933604765393E+01 3.412180783290E+01 -2.344145690599E+00 1.051335762463E-01 3.332891092464E+00 1.016652309952E+00 2.778613282980E+03
 3.621208380424E+01 6.057112467691E+01 -1.004821760449E+00 -6.854969598817E+01 1.145371726070E+00 1.842311448213E+00 -3.010434820037E-01 -2.587353738357E-01 9.076945304984E-02 -3.364848895188E-01 -1.237398312513E-01 8.920892955650E-02 -1.553212390091E-01 -3.452963640357E-01 1.033301599145E-01 -4.395566390155E+02 -7.199029192808E+02 1.082048080899E+01 3.716709549249E-01 2.532080094805E-01 2.617592863014E-02 4.331759953051E-01 5.058941967950E-02 3.608490031344E-01 1.937475785304E-01 3.187979841262E-01 -1.501472336746E-01 1.568708974915E-01 2.282217639355E-01 1.018306745291E-02 -3.579848374022E+01 5.732936258493E+01 -2.923407222726E+00 8.512578704288E-01 6.016286226316E-01 1.704624360925E+00 2.799379497870E+01 2.785787344083E+03
 -7.467589894403E-01 -1.533545816071E+00 9.254983742460E+00 -6.730829081790E-01 1.003005595174E+00 9.393462725295E+00 -3.115991296255E-01 -4.388324015171E-01 -7.322644940930E-01 -7.342597098036E-01 4.682574139074E-01 3.714296979083E-01 -3.630508717252E-01 -2.581520402112E-01 -1.009957911929E+00 1.939819624987E+01 1.351687096237E+01 -8.307411550388E+01 1.056996459055E+00 2.970992725550E-01 4.724652422469E+00 3.516976170323E-01 -7.854071251430E-01 4.346706965801E+00 9.521552682250E-02 3.448496221714E-01 8.152866770041E-01 2.553755579287E-01 -1.402501353765E-01 1.755312418521E-01 -1.848826990331E+00 -3.461404839016E+00 7.020140594581E+00 -3.259824842398E-01 -6.040006377401E-01 -7.345961054705E+00 -3.136079275874E+01 -3.001373443031E+01 1.934839597476E+02
 -6.797261130708E+00 -3.667011167968E+00 9.765651774880E-01 -4.485384325876E+01 -1.720390128790E+01 -6.267375770561E-01 -5.743169174551E+00 2.434989597542E+00 1.007922377611E+00 -2.551683008309E+00 4.328413438418E-01 -3.535447393715E-01 -4.644299230389E+00 -2.708085178015E+00 1.225702629467E+00 3.612291103968E+00 -9.808787182874E+00 -2.789115562412E-01 8.332183169414E+00 2.355488268958E-01 -2.558985607228E-01 8.687998819753E+00 3.588489665040E+00 -1.581384937447E-01 1.942901281787E+00 2.653802339993E+00 -9.721529927368E-01 2.357472796059E+00 -3.167839154219E+00 4.838138689818E-02 -8.640236780838E+01 -1.446077285940E+01 7.512231615036E+00 -7.808747301061E+01 -5.784828958174E+01 1.747883233368E+01 3.449180092464E+01 6.294390414910E+01 -3.603788730452E+00 2.714204366836E+03
 4.010831417927E-01 5.878433120408E-01 1.109413106943E-02 3.546660884555E+01 5.589300745119E+01 -1.356646839521E+00 1.524440410223E-01 3.150781859841E-01 -3.648130828501E-03 3.889833961787E-01 2.928953450721E-01 -6.617492925195E-02 4.523513483914E-01 3.731687936291E-01 9.440402950295E-02 -8.671645049140E-01 -3.434637910439E-01 2.451989378698E-01 -7.033663088251E-01 -5.774930821621E-01 4.520064241417E-02 -7.726861165053E-01 -3.515995533006E-02 -2.945377985617E-02 -1.629821603657E-01 -4.520181133229E-01 -8.614102348974E-03 -5.303615688984E-01 -8.907873297048E-02 -2.227867003297E-01 8.387114522100E-01 5.708949287483E+00 2.167775437835E+00 -4.330554032336E+01 6.871097409991E+01 -3.554881154215E+00 9.772075660599E-01 2.611016535995E-01 1.539832473765E+00 -7.715367845853E+01 2.736500743714E+03
 1.169783035874E+00 -2.233623066758E-01 -7.013879083495E-01 3.699003260168E-01 -2.921529731715E+00 7.472321878097E+00 2.825500883136E-01 -5.878755343383E-01 -1.172896145468E+00 -2.618986129554E-01 -1.107258682433E+00 5.430954979568E-01 -3.705840773582E-01 -1.057855678374E+00 -2.031891887163E+00 -2.354537556224E+00 -7.671180278373E-01 -8.136617633173E+00 -3.283158950315E-01 6.394491492816E-01 -3.641874686882E-02 1.815975895376E+00 1.081681555382E+00 4.469272161818E+00 -1.517002702389E-01 8.704411486309E-01 1.096777862318E+00 6.727768705873E-01 9.197951193864E-01 7.665840952639E-01 -3.845219094216E+00 1.771595888285E+00 1.771605767935E+00 -3.088523504042E+00 -5.799230287598E+00 8.297162142766E+00 3.864444065807E-01 9.503312186417E-01 1.047434500581E+01 -2.676892687302E+01 -4.578574734327E+01 1.921434374554E+02
 8.569066056768E+00 8.838880534675E+00 -1.612168851527E+00 4.813827001004E+01 -2.881928377777E+01 1.893097678034E+00 1.071635127716E+01 -3.481056800037E+00 -1.784693041511E+00 5.524549881523E+00 -1.870361360066E+00 6.042834989911E-01 6.878394200283E+00 6.637872474492E+00 -1.994337257788E+00 -4.011086991471E+00 1.850881035280E+01 6.451967586511E-01 -1.435614055993E+01 8.004318187510E-01 3.949480690903E-01 -1.660377352171E+01 -7.684053441490E+00 3.807084479738E-02 -2.274135904556E+00 -6.060682093925E+00 1.709221634427E+00 -3.371435217107E+00 5.321520808666E+00 4.876336466287E-01 -1.023710447796E+03 3.212431512976E+02 1.650819488495E+01 -3.482372405426E+02 2.217650509308E+02 -1.329234192462E+01 -2.192775693907E+00 -1.320178057687E+00 3.860547841511E+00 1.647440072104E+02 6.690867648031E+00 2.597086783752E+00 2.049400423535E+03
 -9.457111689502E-02 6.698190685297E-01 2.924325701951E-01 9.370427329372E+00 -8.717302478223E+00 4.486183590927E-01 2.347498977947E+00 -1.687212374013E+00 -3.110138685426E-01 1.420613693197E-01 -1.361176873318E+00 -5.621112343450E-01 8.534603964053E-01 1.699028525184E+00 -1.188440493713E+00 3.924686438716E+00 8.013452183907E+00 -6.774308608952E-01 -1.958156641151E+00 2.123063657771E+00 -8.953918864356E-02 -3.048779948762E+00 -2.968693338562E+00 -6.970394460379E-02 4.888323617007E-01 -1.406966395740E+00 7.194034646793E-01 5.932468696283E-02 1.746967087994E+00 7.987195353064E-01 5.950596802309E+02 -8.019858768647E+02 7.271115549485E+00 -1.388198419839E+01 -1.536336213196E+03 2.865530355914E+01 -5.748862348095E+00 -7.185597554827E+00 4.297243812408E-01 3.923190855805E+01 1.019878134156E+01 -4.181509352069E+00 -3.670494177850E+02 2.668110870496E+03
 -7.942023063703E-01 -1.865146169789E+00 -3.156124947764E+00 -8.984291488022E-01 -1.504559827371E-02 2.223192079845E-01 -1.389665523548E+00 -1.632062985964E+00 -4.500973698846E+00 -1.462861181311E+00 -2.662417347417E-01 3.252222452888E+00 -8.242449966671E-01 -2.410741989676E+00 -6.527295714646E+00 9.845918949090E-01 2.784406577684E+00 3.095556892928E+00 1.062724541966E+00 4.608474765463E-01 1.466494223558E-01 1.389545992501E+00 -6.565290715961E-01 -1.017580626103E-01 7.577230765436E-01 2.167451154876E+00 4.235003640618E+00 6.043197549409E-01 1.664179925478E+00 1.812484203387E+00 2.139601815910E+01 -2.646941069482E+00 -1.091804912037E+02 1.321651195264E+01 5.548730044553E+01 -1.036790148188E+02 -1.910313490312E+00 -2.281773351147E+00 1.732190685370E+01 2.352758539347E+00 3.047430734171E+00 1.092429127669E+01 -4.747990945861E+01 -6.954911612330E+01 2.758681255044E+02
 3.248662446462E+00 2.514098794613E+00 -5.797219066141E-01 1.262459034148E+01 -6.430090180526E+00 1.347439133092E+00 2.901657488103E+00 -5.353500863396E-01 -5.619394010008E-01 1.756419461006E+00 6.099152021318E-02 3.045922285378E-01 2.270586805189E+00 1.871678625297E+00 -5.562972248704E-01 -2.208497221497E+01 3.928076108934E+01 6.344200936045E-01 -4.196407982262E+00 -5.597549513707E-01 2.658921191271E-01 -4.602147043350E+00 -1.559050025594E+00 1.289143021867E-01 -1.149056055331E+00 -1.794504741176E+00 5.625827599973E-01 -1.334159369748E+00 8.849461262161E-01 -8.478711802541E-02 -1.181958796359E+03 -4.513495516807E+02 2.606797314748E+01 2.381326510408E+01 4.249614774801E+01 -1.071238434270E+01 -1.157237409634E+03 4.274620676380E+02 1.002065773896E+01 -4.208491205551E+02 -2.679279524839E+01 5.049503347347E+00 -8.632445924277E+01 -3.923676121423E+01 1.080643040834E+00 2.732880706909E+03
 6.060309555636E-01 7.452272843031E-01 -2.318477936689E-01 2.787834099633E+00 -1.703294518185E+00 -1.177044880569E+00 8.005463626455E-01 -1.965380106460E-01 -4.217819899149E-01 4.406382601800E-01 2.124630345251E-02 -2.424908839684E-01 3.562090960379E-01 5.509812158897E-01 -8.673388474164E-01 -3.222054027899E+01 5.966559345153E+01 3.665901523288E-01 -9.509690251954E-01 5.785739723466E-02 2.506011194078E-01 -1.406048478902E+00 -7.545513397247E-01 -3.294368674273E-01 -2.500187766140E-01 -4.960738116701E-01 7.220225833624E-01 -1.910560154577E-01 2.579259853077E-01 3.193729703872E-01 -4.168792863266E+02 -7.323749771232E+02 1.844237405838E+01 7.093572630762E+00 1.918468857943E+01 -6.275662621849E+00 4.250702323522E+02 -7.144579022159E+02 5.070795617777E+00 9.497383053542E-01 -1.459492939495E+03 2.213292353059E+01 2.845867215977E+00 4.941796891604E+01 2.768118628888E+00 1.558876687825E+01 2.770712839036E+03
 5.983705646074E-01 -1.226105883400E-01 6.074881056870E+00 1.049637038693E-01 2.783841056503E-01 -9.396793586902E+00 4.295754382697E-01 -2.735496056010E-01 2.264783725982E+00 -2.426488838319E-01 5.740719225217E-02 4.614433283146E-01 5.634350393227E-01 3.790422359648E-01 4.330901134335E+00 1.786437228479E+00 -3.472715566182E-01 8.059515525218E+00 3.000412170334E-01 1.436564834950E-01 -3.846523755968E-01 1.453265676763E-01 -1.345318743880E-01 2.160169906440E-01 -1.971207502889E-01 6.443578062381E-02 -3.148550896007E+00 1.756090300852E-01 -4.175064718613E-01 -1.294186749201E+00 2.865095612757E+01 1.501556893565E+01 -8.912018944948E+01 1.631019597438E+00 -3.679071829816E-02 5.742333183942E+00 9.856101748330E+00 4.136088327838E+00 -8.426662469298E+01 7.192009385961E+00 2.569271692881E+01 -8.409070567162E+01 -7.295272527205E+00 5.709813408739E+00 -7.875623045357E+00 -4.312497603554E+01 -4.477360049881E+01 2.055036616801E+02
 7.017837461528E+00 3.011639165240E+00 -7.791520611600E-01 2.589975614743E+01 -1.391674604029E+01 4.264701257580E-02 5.752259872255E+00 -3.132214202719E+00 -8.552490673068E-01 2.039676877125E+00 -8.736165520344E-01 2.013444981000E-01 4.510287777944E+00 2.003310199893E+00 -1.183594945625E+00 -3.237429377289E+00 1.009438202546E+01 3.147229231577E-01 -8.202996040834E+00 3.484261636614E-01 2.074718651535E-01 -7.939101659433E+00 -3.638982604303E+00 7.155214706603E-02 -1.777074641604E+00 -2.008208894685E+00 8.661269677772E-01 -1.991022294160E+00 3.914233797175E+00 4.843523802094E-02 1.232583471098E+02 -5.740782110302E+01 -5.748142566575E+00 -1.398954927533E+03 -3.818678941477E+02 1.943011756269E+01 2.775267768503E+00 3.515800052961E-01 1.306651069605E+00 -1.242270035154E+03 4.713933111505E+02 6.116968118765E+00 -1.318879617598E+02 -5.721535487793E+01 -8.018744356374E+00 1.467253201853E+00 -1.427031800284E+01 -2.936430849709E+00 2.985112574703E+03
 -3.088033742251E-01 -1.666712689017E-02 3.162348911061E-02 8.012096913124E-01 -1.030506873373E+00 4.023420089355E-01 1.294114750269E-01 -1.321653848456E-01 2.742982102522E-02 5.688803586712E-05 -2.810455858025E-01 1.232785914506E-01 -1.367669250364E-01 1.580216015346E-01 1.451556610096E-01 6.360183223490E-01 1.086084281411E+00 -1.117198349380E-01 1.741558657278E-01 2.905923958465E-01 -8.635679445775E-02 -1.618507683737E-01 -3.765223294034E-02 8.550527582842E-02 9.971148459012E-02 -6.043351168138E-02 -1.201917758388E-01 2.125271890992E-01 1.509364160049E-02 3.519404079101E-02 9.559787989272E+00 -8.612120800970E+00 2.869093345546E-01 -4.815053814291E+02 -8.184330623407E+02 2.786348280195E+01 -1.406122471531E+00 -5.825951836261E-01 -2.769929268454E-01 4.644467016836E+02 -7.519440611235E+02 1.008966461387E+01 -1.061731638463E+02 -1.116129066175E+01 -5.100278391662E+00 7.039518762821E+01 -3.513206122309E+00 -2.499265065771E+00 1.243081772156E+01 2.534101447610E+03
 5.193653072053E-01 2.793749524486E-01 1.324166264246E+00 1.523152295489E+00 -1.596666300376E-01 4.563401022892E+00 4.683683458936E-01 8.844605195350E-02 1.877041871547E+00 3.216586952038E-01 -2.674732831868E-02 -9.808653428805E-01 4.386863041424E-01 4.500003663903E-01 2.878664621022E+00 -1.876519463694E-01 -4.538032938010E-01 -1.138682606428E+00 -4.397132203217E-01 -1.106978487405E-01 -9.713330460595E-02 -6.340199048221E-01 2.185508300654E-01 4.190811494935E-02 -2.254932186473E-01 -3.686615748453E-01 -1.903998821462E+00 -1.603317900689E-01 -1.116231559693E-01 -8.246102346659E-01 7.035492285007E-01 4.288774292467E+00 -2.065243689849E+00 3.333212825417E+01 2.358705598985E+01 -5.866669524185E+01 9.170831379556E-02 9.067315436800E-01 -3.992551263613E-01 7.456972185988E+00 6.047958639674E+00 -8.522745505961E+01 1.338982601107E+00 5.457284362344E+00 -2.128886298815E+01 -3.376068355083E+00 -4.827005607299E-01 1.849719811307E+01 -4.236525447488E+01 -5.257240576229E+01 1.665399739713E+02
 4.269934161011E+00 1.935232747615E+00 -4.828010304023E-01 -1.224871696607E+03 4.526000454968E+02 3.227840727412E+00 3.334001845427E+00 -1.789091557214E+00 -5.435233232288E-01 1.090557088783E+00 -4.052316796169E-01 2.153234805488E-01 2.733616160582E+00 1.325772958621E+00 -5.080649084708E-01 3.865695907267E+01 4.748478137187E+00 1.947233268151E-01 -4.854172447867E+00 1.511307941475E-01 2.049521949239E-02 -2.478451230765E+01 3.496244913384E+01 -1.049039176113E+00 -1.084715765774E+00 -1.261740750147E+00 4.076320858555E-01 -1.246097415266E+00 2.109658594274E+00 -2.216473676551E-01 7.369783897484E+01 -3.193046372384E+01 -2.716049591072E+00 3.390475418548E+01 5.935734469518E+01 -9.647944895869E+00 1.683891168280E+00 5.542566922463E-01 2.208843219264E+00 -1.074961428703E+03 -3.715927514482E+02 1.573748346767E+01 -1.006364990524E+02 -2.818460429754E+01 -2.246979372053E+00 1.263361953976E+01 -7.773022549759E+00 -2.469180171234E+00 -7.058186724712E+01 -3.546928497178E+01 -1.282932258911E+00 2.699953289626E+03
 2.010320313715E+00 5.181924523436E-01 -2.626322769500E-01 4.776672144572E+02 -7.573443456099E+02 8.343581499041E+00 1.464725286529E+00 -1.160751213205E+00 -2.609671495099E-01 2.562712668757E-01 -5.489788693718E-01 1.260931897974E-01 9.146236825608E-01 -2.305811842426E-02 -4.664027517971E-01 6.560466479950E+01 9.040615610661E-01 -9.730288233391E-01 -1.954399926563E+00 4.141393017384E-01 8.226286997038E-02 -3.414909104576E+01 5.957924544347E+01 9.412976227578E-02 -4.204116943281E-01 -1.575118827681E-02 3.918790071399E-01 -1.075595157521E-01 1.354183002825E+00 2.161459989972E-01 2.737635487115E+01 -1.273548464384E+01 -2.432479849705E+00 1.442496528503E+01 2.494918143925E+01 -1.489205294295E+00 -6.693515618747E-01 -2.450284701306E-01 -5.321038661725E-01 -3.523109098404E+02 -6.597203539981E+02 1.686213568932E+01 -4.360904178160E+01 -1.784208868220E+01 -3.699536518304E+00 -7.187798985148E+01 -1.692973913897E+00 -9.091684228229E-01 1.143688762633E+01 5.726809437434E+01 -1.143693957654E+00 -4.528232598406E+01 2.812626211221E+03
 -4.911917815334E-01 1.344495462803E+00 4.286362112474E+00 2.094383781064E+00 7.852762369754E+00 -8.292431772951E+01 7.916212358470E-02 5.107833301137E-01 -6.554217586582E-01 1.083292214390E+00 3.621110268879E-01 3.985662560313E+00 -3.944478978069E-02 4.831177114462E-02 -1.743175240910E+00 2.598251502500E-01 -7.483922119620E-01 8.605014816971E+00 -5.828560658410E-01 -9.145532509987E-01 1.082727931749E-01 -6.517201385465E-01 -3.356119766588E-01 9.727837296251E+00 -3.483688770998E-02 -3.348994159367E-01 1.071659101199E+00 -2.744542853258E-01 2.525680771944E-01 7.214895222815E-01 4.114194885043E+00 -2.978523493437E-01 6.555888344747E+00 -1.710676894441E-01 2.515733518369E+00 3.869561468953E+00 -1.525248639206E+00 -1.015835865773E+00 -8.428943376020E+00 1.841435934304E+01 1.140679323669E+01 -8.207179408955E+01 2.466842548874E-01 -1.705413791590E+00 -1.428568039410E-01 -6.208070527410E-01 2.136841223159E+00 5.461199020757E+00 7.394514483863E-01 2.948217708219E-02 9.728416278889E+00 -2.370257739236E+01 -4.970164278141E+01 1.891495983462E+02