#BIOSYM hessian 1
@Type: Hessian Update
@Units
 distance: 	A
 energy: 	Kcal/Mol
#header
@natom 66

#label
C1      C2      C3      C4      C5      C6      C7      C8      C9      C10     C11     C12     C13     C14     C15     C16     C17     C18     C19     C20     C21     C22     C23     H24     C25     C26     C27     C28     C29     C30     C31     C32     C33     C34     C35     C36     C37     C38     C39     C40     C41     C42     C43     C44     C45     C46     C47     C48     C49     H50     H51     H52     H53     H54     H55     H56     H57     H58     H59     H60     H61     H62     H63     H64     H65     H66

#element
C  C  C  C  C  C  C  C  C  C  C  C  C  C  C  C  C  C  C  C  C  C  C  H  C  C  C  C  C  C  C  C  C  C  C  C  C  C  C  C  C  C  C  C  C  C  C  C  C  H  H  H  H  H  H  H  H  H  H  H  H  H  H  H  H  H 

#matrix
198
 2.774205639807E+03
 -1.668551150513E+01 2.811914731053E+03
 0.000000000000E+00 0.000000000000E+00 0.000000000000E+00
 4.121594986696E+01 6.825628845801E+01 0.000000000000E+00 2.795037788905E+03
 -1.486453324882E+00 -8.036938946980E-01 0.000000000000E+00 -2.260617979106E+01 2.766015481121E+03
 0.000000000000E+00 0.000000000000E+00 0.000000000000E+00 0.000000000000E+00 0.000000000000E+00 0.000000000000E+00
 -1.626660760391E+01 3.291169259429E+01 0.000000000000E+00 -2.830064369296E+00 8.154824593363E-01 0.000000000000E+00 2.799760041387E+03
 -3.674633265174E+01 5.701778506834E+01 0.000000000000E+00 3.915608785976E+00 -3.906871538268E+00 0.000000000000E+00 8.034289445709E+00 2.712197065044E+03
 0.000000000000E+00 0.000000000000E+00 0.000000000000E+00 0.000000000000E+00 0.000000000000E+00 0.000000000000E+00 0.000000000000E+00 0.000000000000E+00 0.000000000000E+00
 3.382424308766E+01 -6.952933773197E+01 0.000000000000E+00 -1.441169667493E+01 3.101365037101E+01 0.000000000000E+00 4.084451594361E+01 5.663468374274E+01 0.000000000000E+00 2.798733438380E+03
 -5.727483553994E+00 -2.497045053789E+00 0.000000000000E+00 -2.631693606829E+01 5.428880478863E+01 0.000000000000E+00 -6.359063359677E-01 -1.481182907011E+01 0.000000000000E+00 -1.243673541105E+01 2.775810804517E+03
 0.000000000000E+00 0.000000000000E+00 0.000000000000E+00 0.000000000000E+00 0.000000000000E+00 0.000000000000E+00 0.000000000000E+00 0.000000000000E+00 0.000000000000E+00 0.000000000000E+00 0.000000000000E+00 0.000000000000E+00
 -8.122824520780E+00 -6.051032139718E+00 0.000000000000E+00 1.099313146246E+01 -8.528828722654E+00 0.000000000000E+00 3.700002169649E+01 -1.087994566068E+02 0.000000000000E+00 -4.732847367981E+01 6.018023074487E+00 0.000000000000E+00 2.523110685153E+03
 1.643859866841E+01 1.004015679679E+01 0.000000000000E+00 -2.044147402695E+01 1.627146485031E+01 0.000000000000E+00 1.025299751482E+01 4.489218374632E+01 0.000000000000E+00 1.372791214798E+01 1.195973125571E+02 0.000000000000E+00 -7.450666162030E+01 2.856405971271E+03
 0.000000000000E+00 0.000000000000E+00 0.000000000000E+00 0.000000000000E+00 0.000000000000E+00 0.000000000000E+00 0.000000000000E+00 0.000000000000E+00 0.000000000000E+00 0.000000000000E+00 0.000000000000E+00 0.000000000000E+00 0.000000000000E+00 0.000000000000E+00 0.000000000000E+00
 -1.217171859856E+03 4.428417899731E+02 0.000000000000E+00 -4.665906505557E+02 -6.826627452015E+00 0.000000000000E+00 -1.594929645892E+00 4.773864657619E+00 0.000000000000E+00 4.830249639607E+00 5.058008705151E+00 0.000000000000E+00 9.632317237106E+00 -1.846580553358E+01 0.000000000000E+00 2.815135432828E+03
 4.374785144851E+02 -7.345339665710E+02 0.000000000000E+00 -8.192779579116E+00 -1.429704355314E+03 0.000000000000E+00 -1.040208554192E+00 2.536230537807E+00 0.000000000000E+00 3.127757370847E+00 4.348589692313E+00 0.000000000000E+00 7.219406113178E+00 -1.347852249021E+01 0.000000000000E+00 4.882858216221E+00 2.774389583584E+03
 0.000000000000E+00 0.000000000000E+00 0.000000000000E+00 0.000000000000E+00 0.000000000000E+00 0.000000000000E+00 0.000000000000E+00 0.000000000000E+00 0.000000000000E+00 0.000000000000E+00 0.000000000000E+00 0.000000000000E+00 0.000000000000E+00 0.000000000000E+00 0.000000000000E+00 0.000000000000E+00 0.000000000000E+00 0.000000000000E+00
 -1.196470181032E+03 -4.166805342499E+02 0.000000000000E+00 5.933157166992E-01 -2.991997033413E-01 0.000000000000E+00 -1.236857641308E+03 4.411977816653E+02 0.000000000000E+00 -4.758592556981E+02 -7.946496611463E+00 0.000000000000E+00 -7.608263650373E-01 -2.167733101972E-01 0.000000000000E+00 -2.021626641640E+01 -3.183502076608E+01 0.000000000000E+00 2.794147702664E+03
 -4.082781761346E+02 -6.949371803267E+02 0.000000000000E+00 -8.051149178540E+00 4.834276362603E+00 0.000000000000E+00 4.461821435453E+02 -7.246786128030E+02 0.000000000000E+00 3.972808806790E+00 -1.438988848377E+03 0.000000000000E+00 3.628289837402E+01 -6.290537789444E+01 0.000000000000E+00 2.861076601311E+01 5.259722372417E+01 0.000000000000E+00 -1.775952230887E+01 2.753251713463E+03
 0.000000000000E+00 0.000000000000E+00 0.000000000000E+00 0.000000000000E+00 0.000000000000E+00 0.000000000000E+00 0.000000000000E+00 0.000000000000E+00 0.000000000000E+00 0.000000000000E+00 0.000000000000E+00 0.000000000000E+00 0.000000000000E+00 0.000000000000E+00 0.000000000000E+00 0.000000000000E+00 0.000000000000E+00 0.000000000000E+00 0.000000000000E+00 0.000000000000E+00 0.000000000000E+00
 5.502628220312E-01 5.110486305314E-02 0.000000000000E+00 -1.223712257909E+03 -4.205169138777E+02 0.000000000000E+00 1.609361470459E+00 8.312316159849E-02 0.000000000000E+00 -1.215839995883E+03 4.375877592491E+02 0.000000000000E+00 5.926143260649E-01 4.875394512511E-02 0.000000000000E+00 3.745218767094E+01 -4.772237821859E-01 0.000000000000E+00 3.951408972183E+01 1.564617043725E-01 0.000000000000E+00 2.802279091908E+03
 -3.267627571563E-01 -5.779312498902E-01 0.000000000000E+00 -4.228504983589E+02 -7.052885800364E+02 0.000000000000E+00 1.742348023794E+00 5.534540482026E-01 0.000000000000E+00 4.391308255022E+02 -7.355500309660E+02 0.000000000000E+00 -1.024313489664E+00 1.900855359169E+00 0.000000000000E+00 -6.649894797904E+01 8.360932665461E-01 0.000000000000E+00 6.750962776758E+01 1.010630707772E+00 0.000000000000E+00 2.465252932448E+00 2.798595431544E+03
 0.000000000000E+00 0.000000000000E+00 0.000000000000E+00 0.000000000000E+00 0.000000000000E+00 0.000000000000E+00 0.000000000000E+00 0.000000000000E+00 0.000000000000E+00 0.000000000000E+00 0.000000000000E+00 0.000000000000E+00 0.000000000000E+00 0.000000000000E+00 0.000000000000E+00 0.000000000000E+00 0.000000000000E+00 0.000000000000E+00 0.000000000000E+00 0.000000000000E+00 0.000000000000E+00 0.000000000000E+00 0.000000000000E+00 0.000000000000E+00
 -3.105750687903E-01 7.536408251819E+00 0.000000000000E+00 -1.787829227681E+00 4.638950013830E+00 0.000000000000E+00 -1.201820133239E+03 -3.960523327398E+02 0.000000000000E+00 2.145178455203E+01 2.267530025614E+01 0.000000000000E+00 -4.625647075238E+02 -9.032409219574E+01 0.000000000000E+00 -3.241364129695E+00 -3.007514287261E+00 0.000000000000E+00 -2.809896268305E+01 -6.122902765629E+01 0.000000000000E+00 -4.473546131877E+00 -2.230332972613E+00 0.000000000000E+00 2.363194879751E+03
 -1.193920138406E+01 -1.186326193915E+01 0.000000000000E+00 1.596772529377E+01 -1.259346248617E+01 0.000000000000E+00 -4.846034939607E+02 -7.562094385837E+02 0.000000000000E+00 -3.800821345196E+01 -4.320692359101E+01 0.000000000000E+00 -6.640226545125E+01 -1.649926229454E+03 0.000000000000E+00 1.254229216229E+01 1.187973703902E+01 0.000000000000E+00 3.762934374151E+01 1.155958915775E+02 0.000000000000E+00 2.266515991336E-01 -2.285736866805E+00 0.000000000000E+00 2.499580968969E+02 2.837665143746E+03
 0.000000000000E+00 0.000000000000E+00 0.000000000000E+00 0.000000000000E+00 0.000000000000E+00 0.000000000000E+00 0.000000000000E+00 0.000000000000E+00 0.000000000000E+00 0.000000000000E+00 0.000000000000E+00 0.000000000000E+00 0.000000000000E+00 0.000000000000E+00 0.000000000000E+00 0.000000000000E+00 0.000000000000E+00 0.000000000000E+00 0.000000000000E+00 0.000000000000E+00 0.000000000000E+00 0.000000000000E+00 0.000000000000E+00 0.000000000000E+00 0.000000000000E+00 0.000000000000E+00 0.000000000000E+00
 1.108609743097E+01 6.522411338649E+00 0.000000000000E+00 -1.416713698678E+01 1.095475583560E+01 0.000000000000E+00 -6.878600251551E-01 3.002879911272E+01 0.000000000000E+00 -1.204848543681E+03 -3.958240565692E+02 0.000000000000E+00 -1.196546759114E+03 3.274035313537E+02 0.000000000000E+00 -1.245821517651E+01 -9.195228955788E+00 0.000000000000E+00 4.012373226837E+01 -4.238342474627E+01 0.000000000000E+00 -1.948962661034E+01 -3.289415140463E+01 0.000000000000E+00 -2.861854169493E+00 1.087379212875E+02 0.000000000000E+00 2.772373556695E+03
 -7.469571795022E+00 -3.653892913943E+00 0.000000000000E+00 8.773234947538E+00 -7.081528862093E+00 0.000000000000E+00 2.233888132151E+00 -1.490949338662E+01 0.000000000000E+00 -4.516620011704E+02 -7.435141509960E+02 0.000000000000E+00 4.043068971596E+02 -7.128557497377E+02 0.000000000000E+00 8.334849104354E+00 5.642870663951E+00 0.000000000000E+00 -6.853486191811E+01 2.574184199119E+01 0.000000000000E+00 3.423137014627E+01 5.907185624138E+01 0.000000000000E+00 1.144288393326E+02 -6.748192436561E+01 0.000000000000E+00 1.413107249915E+01 2.846218736324E+03
 0.000000000000E+00 0.000000000000E+00 0.000000000000E+00 0.000000000000E+00 0.000000000000E+00 0.000000000000E+00 0.000000000000E+00 0.000000000000E+00 0.000000000000E+00 0.000000000000E+00 0.000000000000E+00 0.000000000000E+00 0.000000000000E+00 0.000000000000E+00 0.000000000000E+00 0.000000000000E+00 0.000000000000E+00 0.000000000000E+00 0.000000000000E+00 0.000000000000E+00 0.000000000000E+00 0.000000000000E+00 0.000000000000E+00 0.000000000000E+00 0.000000000000E+00 0.000000000000E+00 0.000000000000E+00 0.000000000000E+00 0.000000000000E+00 0.000000000000E+00
 2.785314744089E-01 1.075896520492E-01 0.000000000000E+00 -3.966384413695E-01 2.247956106754E-01 0.000000000000E+00 -6.878879620190E-01 4.886787812469E-01 0.000000000000E+00 7.007971013359E-01 8.654384000807E-01 0.000000000000E+00 1.394183897672E+00 -2.705024877834E+00 0.000000000000E+00 -2.453272117118E-01 -1.638728192672E-01 0.000000000000E+00 6.185462149643E-02 -9.892402596542E-01 0.000000000000E+00 2.968812723301E-02 9.449282051937E-02 0.000000000000E+00 1.105488255404E-01 2.086184464815E+00 0.000000000000E+00 -1.911865649505E+00 1.242850939396E+00 0.000000000000E+00 2.806019315103E+03
 6.174990970591E-02 -2.661409794939E-02 0.000000000000E+00 -1.796545246261E-02 6.034123198820E-02 0.000000000000E+00 2.973413571855E-01 4.008914127653E-01 0.000000000000E+00 2.749168892938E-01 2.647771003095E-01 0.000000000000E+00 6.494095002664E-01 -9.432249318992E-01 0.000000000000E+00 -1.459825217275E-01 1.149040412289E-02 0.000000000000E+00 -1.542776776615E-01 -1.838461968700E-01 0.000000000000E+00 -4.972592273647E-02 1.117421229789E-02 0.000000000000E+00 -8.626948991061E-01 2.352924178785E-01 0.000000000000E+00 -6.579371613307E-01 3.445448192041E-01 0.000000000000E+00 1.855137007095E+00 2.797899916095E+03
 0.000000000000E+00 0.000000000000E+00 0.000000000000E+00 0.000000000000E+00 0.000000000000E+00 0.000000000000E+00 0.000000000000E+00 0.000000000000E+00 0.000000000000E+00 0.000000000000E+00 0.000000000000E+00 0.000000000000E+00 0.000000000000E+00 0.000000000000E+00 0.000000000000E+00 0.000000000000E+00 0.000000000000E+00 0.000000000000E+00 0.000000000000E+00 0.000000000000E+00 0.000000000000E+00 0.000000000000E+00 0.000000000000E+00 0.000000000000E+00 0.000000000000E+00 0.000000000000E+00 0.000000000000E+00 0.000000000000E+00 0.000000000000E+00 0.000000000000E+00 0.000000000000E+00 0.000000000000E+00 0.000000000000E+00
 -1.331759510390E+00 -7.178839895176E-01 0.000000000000E+00 1.548508875637E+00 -1.169469895699E+00 0.000000000000E+00 7.765230231879E-01 -3.195047455892E+00 0.000000000000E+00 -3.482234438805E+00 -4.089416296325E+00 0.000000000000E+00 -7.469645105122E+00 1.372326579611E+01 0.000000000000E+00 1.365028865511E+00 9.254060147322E-01 0.000000000000E+00 2.015384320970E-01 4.553780441659E+00 0.000000000000E+00 -3.239969872169E-02 -2.298066994779E-01 0.000000000000E+00 3.724736284874E+00 -1.026735191558E+01 0.000000000000E+00 9.217193618707E+00 -5.798334650150E+00 0.000000000000E+00 4.172912984751E+01 7.136111617432E+01 0.000000000000E+00 2.791197396960E+03
 -1.821350210621E+00 -1.091101574536E+00 0.000000000000E+00 2.182413893133E+00 -1.648227456645E+00 0.000000000000E+00 1.635437761489E+00 -4.153899003107E+00 0.000000000000E+00 -4.753031988663E+00 -5.635844081122E+00 0.000000000000E+00 -1.008337963706E+01 1.877573531679E+01 0.000000000000E+00 1.872494428661E+00 1.438454416632E+00 0.000000000000E+00 1.610767594683E-01 6.437576534859E+00 0.000000000000E+00 -9.779722709421E-02 -3.419252040042E-01 0.000000000000E+00 4.002864572272E+00 -1.432540672438E+01 0.000000000000E+00 1.264010273196E+01 -8.026361074827E+00 0.000000000000E+00 -7.477318186592E-01 -1.704155151446E+00 0.000000000000E+00 2.812229267663E+02 2.853982122663E+03
 0.000000000000E+00 0.000000000000E+00 0.000000000000E+00 0.000000000000E+00 0.000000000000E+00 0.000000000000E+00 0.000000000000E+00 0.000000000000E+00 0.000000000000E+00 0.000000000000E+00 0.000000000000E+00 0.000000000000E+00 0.000000000000E+00 0.000000000000E+00 0.000000000000E+00 0.000000000000E+00 0.000000000000E+00 0.000000000000E+00 0.000000000000E+00 0.000000000000E+00 0.000000000000E+00 0.000000000000E+00 0.000000000000E+00 0.000000000000E+00 0.000000000000E+00 0.000000000000E+00 0.000000000000E+00 0.000000000000E+00 0.000000000000E+00 0.000000000000E+00 0.000000000000E+00 0.000000000000E+00 0.000000000000E+00 0.000000000000E+00 0.000000000000E+00 0.000000000000E+00
 -2.118906167155E+01 -3.485356225928E+01 0.000000000000E+00 3.960878907367E+01 -1.132760164892E+00 0.000000000000E+00 7.651087028196E-01 -1.751384911891E+00 0.000000000000E+00 -2.010570888741E+00 -2.393057800353E+00 0.000000000000E+00 -4.071291704605E+00 8.086740232150E+00 0.000000000000E+00 -1.251695189598E+03 -4.365180812978E+02 0.000000000000E+00 1.095982476923E-01 2.834348440938E+00 0.000000000000E+00 -1.536909638759E-01 -9.001319088122E-02 0.000000000000E+00 1.916540697203E+00 -6.746044984871E+00 0.000000000000E+00 5.214313640291E+00 -3.546162580215E+00 0.000000000000E+00 -1.938044503262E+01 3.391207814775E+01 0.000000000000E+00 -5.943081690932E-01 -8.838139153885E-01 0.000000000000E+00 2.787130998859E+03
 3.183033707919E+01 5.795278664644E+01 0.000000000000E+00 -6.369322100462E+01 -2.659077389386E+00 0.000000000000E+00 4.107608127401E+00 -7.968195702374E+00 0.000000000000E+00 -9.689598526875E+00 -1.172835802015E+01 0.000000000000E+00 -2.044334887477E+01 3.839834374397E+01 0.000000000000E+00 -4.367238860731E+02 -7.225318019524E+02 0.000000000000E+00 -2.740400851760E-01 1.359062273215E+01 0.000000000000E+00 -2.408319909411E-01 -8.186852069093E-01 0.000000000000E+00 7.698557317769E+00 -3.091316588088E+01 0.000000000000E+00 2.591037739935E+01 -1.646913448738E+01 0.000000000000E+00 -3.219547226737E+01 5.716519795303E+01 0.000000000000E+00 -2.774495222597E+00 -4.068227499336E+00 0.000000000000E+00 1.640119050580E+01 2.789895287538E+03
 0.000000000000E+00 0.000000000000E+00 0.000000000000E+00 0.000000000000E+00 0.000000000000E+00 0.000000000000E+00 0.000000000000E+00 0.000000000000E+00 0.000000000000E+00 0.000000000000E+00 0.000000000000E+00 0.000000000000E+00 0.000000000000E+00 0.000000000000E+00 0.000000000000E+00 0.000000000000E+00 0.000000000000E+00 0.000000000000E+00 0.000000000000E+00 0.000000000000E+00 0.000000000000E+00 0.000000000000E+00 0.000000000000E+00 0.000000000000E+00 0.000000000000E+00 0.000000000000E+00 0.000000000000E+00 0.000000000000E+00 0.000000000000E+00 0.000000000000E+00 0.000000000000E+00 0.000000000000E+00 0.000000000000E+00 0.000000000000E+00 0.000000000000E+00 0.000000000000E+00 0.000000000000E+00 0.000000000000E+00 0.000000000000E+00
 -2.586103834017E+00 -1.255652093273E+00 0.000000000000E+00 -1.606295361339E+01 -3.398046252057E+01 0.000000000000E+00 2.558240683283E+00 -5.763328238420E+00 0.000000000000E+00 -6.677581113389E+00 -8.072830610477E+00 0.000000000000E+00 -1.418944363480E+01 2.630667289636E+01 0.000000000000E+00 2.925816486462E+00 1.815205036814E+00 0.000000000000E+00 1.371488921995E-01 8.894871349354E+00 0.000000000000E+00 -1.245765816741E-01 -4.884225156972E-01 0.000000000000E+00 6.455576512508E+00 -2.008923270277E+01 0.000000000000E+00 1.770923530942E+01 -1.117275984339E+01 0.000000000000E+00 3.979537392268E+01 -6.902433594211E+01 0.000000000000E+00 -2.504690913868E+01 3.757029920133E+01 0.000000000000E+00 3.880791238977E+01 6.139935975181E+01 0.000000000000E+00 2.772771934793E+03
 -1.450814810212E+00 -6.639829371178E-01 0.000000000000E+00 3.575832859626E+01 5.498207853765E+01 0.000000000000E+00 1.536458242903E+00 -2.922463708769E+00 0.000000000000E+00 -3.374384908447E+00 -4.036445491029E+00 0.000000000000E+00 -7.025351896668E+00 1.339422478048E+01 0.000000000000E+00 1.095598094581E+00 6.938607440148E-01 0.000000000000E+00 9.598960446203E-02 4.535438966606E+00 0.000000000000E+00 -1.004726730054E-01 -1.657845616833E-01 0.000000000000E+00 2.099643171444E+00 -1.023149008057E+01 0.000000000000E+00 8.998115553206E+00 -5.826140111873E+00 0.000000000000E+00 1.521263000078E-01 2.051084579544E-01 0.000000000000E+00 -4.324647505432E+01 7.271446774259E+01 0.000000000000E+00 -5.215617067126E-01 -2.732711812971E+00 0.000000000000E+00 -3.118144112318E+01 2.754215159146E+03
 0.000000000000E+00 0.000000000000E+00 0.000000000000E+00 0.000000000000E+00 0.000000000000E+00 0.000000000000E+00 0.000000000000E+00 0.000000000000E+00 0.000000000000E+00 0.000000000000E+00 0.000000000000E+00 0.000000000000E+00 0.000000000000E+00 0.000000000000E+00 0.000000000000E+00 0.000000000000E+00 0.000000000000E+00 0.000000000000E+00 0.000000000000E+00 0.000000000000E+00 0.000000000000E+00 0.000000000000E+00 0.000000000000E+00 0.000000000000E+00 0.000000000000E+00 0.000000000000E+00 0.000000000000E+00 0.000000000000E+00 0.000000000000E+00 0.000000000000E+00 0.000000000000E+00 0.000000000000E+00 0.000000000000E+00 0.000000000000E+00 0.000000000000E+00 0.000000000000E+00 0.000000000000E+00 0.000000000000E+00 0.000000000000E+00 0.000000000000E+00 0.000000000000E+00 0.000000000000E+00
 8.521266813679E-01 4.715144924714E-01 0.000000000000E+00 -9.856590988230E-01 7.726195614638E-01 0.000000000000E+00 4.913172646595E-02 2.245181565340E+00 0.000000000000E+00 2.338099929242E+00 2.728095539427E+00 0.000000000000E+00 5.136690473645E+00 -9.332451404001E+00 0.000000000000E+00 -9.065844068281E-01 -5.929276600785E-01 0.000000000000E+00 -1.226293701674E-01 -2.989810735300E+00 0.000000000000E+00 -3.795345361476E-03 1.087441785889E-01 0.000000000000E+00 -3.677350094400E+00 7.348596405548E+00 0.000000000000E+00 -6.168748282604E+00 3.842986916594E+00 0.000000000000E+00 -1.233164561935E+03 4.341058073082E+02 0.000000000000E+00 -5.060281311700E+02 -1.584795804548E+01 0.000000000000E+00 4.366012573772E-01 1.781658804602E+00 0.000000000000E+00 1.342431937841E+00 7.177267755899E-01 0.000000000000E+00 2.847857857424E+03
 1.780622458476E+00 1.071993252565E+00 0.000000000000E+00 -2.168778299575E+00 1.611296379154E+00 0.000000000000E+00 -2.079419064034E+00 3.792736848809E+00 0.000000000000E+00 4.531291964905E+00 5.464839478705E+00 0.000000000000E+00 9.542139893639E+00 -1.796763361870E+01 0.000000000000E+00 -1.831489591086E+00 -1.472728178887E+00 0.000000000000E+00 -2.975856616236E-02 -6.286234532717E+00 0.000000000000E+00 1.451987354655E-01 3.492611627315E-01 0.000000000000E+00 -3.243001643097E+00 1.399141686045E+01 0.000000000000E+00 -1.210287292774E+01 7.735538795580E+00 0.000000000000E+00 4.352319268849E+02 -7.313886102236E+02 0.000000000000E+00 -2.532144081553E+01 -1.531162143847E+03 0.000000000000E+00 9.039009368785E-01 4.135082913287E+00 0.000000000000E+00 2.771218653834E+00 1.343295288457E+00 0.000000000000E+00 3.282297168108E+01 2.885999502638E+03
 0.000000000000E+00 0.000000000000E+00 0.000000000000E+00 0.000000000000E+00 0.000000000000E+00 0.000000000000E+00 0.000000000000E+00 0.000000000000E+00 0.000000000000E+00 0.000000000000E+00 0.000000000000E+00 0.000000000000E+00 0.000000000000E+00 0.000000000000E+00 0.000000000000E+00 0.000000000000E+00 0.000000000000E+00 0.000000000000E+00 0.000000000000E+00 0.000000000000E+00 0.000000000000E+00 0.000000000000E+00 0.000000000000E+00 0.000000000000E+00 0.000000000000E+00 0.000000000000E+00 0.000000000000E+00 0.000000000000E+00 0.000000000000E+00 0.000000000000E+00 0.000000000000E+00 0.000000000000E+00 0.000000000000E+00 0.000000000000E+00 0.000000000000E+00 0.000000000000E+00 0.000000000000E+00 0.000000000000E+00 0.000000000000E+00 0.000000000000E+00 0.000000000000E+00 0.000000000000E+00 0.000000000000E+00 0.000000000000E+00 0.000000000000E+00
 -6.172030760959E-01 -4.654319268276E-01 0.000000000000E+00 9.229333925547E-01 -6.658015152774E-01 0.000000000000E+00 8.506951217943E-01 -1.384726582950E+00 0.000000000000E+00 -1.784505320381E+00 -2.271394895163E+00 0.000000000000E+00 -3.962982903914E+00 7.332973929848E+00 0.000000000000E+00 -1.911212877384E+01 3.566414353370E+01 0.000000000000E+00 -1.891515074042E-01 2.667465880532E+00 0.000000000000E+00 -5.744725158192E-02 -1.624898516882E-01 0.000000000000E+00 1.204907334216E+00 -5.865746616452E+00 0.000000000000E+00 4.945284573414E+00 -3.059606068169E+00 0.000000000000E+00 -1.219457466088E+03 -4.247249036733E+02 0.000000000000E+00 -5.147432771601E-01 -7.157282047588E-01 0.000000000000E+00 -1.178779181198E+03 4.247621419988E+02 0.000000000000E+00 -4.730569787934E+02 -9.094039784280E+00 0.000000000000E+00 -1.931485445038E+01 -3.316886751268E+01 0.000000000000E+00 2.754611259954E+03
 1.328723157327E+00 8.337938703573E-01 0.000000000000E+00 -1.677104790806E+00 1.085505902197E+00 0.000000000000E+00 -1.738448101218E+00 2.412834984640E+00 0.000000000000E+00 3.119970129069E+00 3.854162222597E+00 0.000000000000E+00 6.505468073235E+00 -1.259452244498E+01 0.000000000000E+00 -3.430450427274E+01 5.734659611925E+01 0.000000000000E+00 2.056699523282E-01 -4.545272183255E+00 0.000000000000E+00 1.639697556600E-01 2.303003804646E-01 0.000000000000E+00 -1.853611325729E+00 1.059500848695E+01 0.000000000000E+00 -8.388269638100E+00 5.456227232569E+00 0.000000000000E+00 -4.278595765066E+02 -7.126463182478E+02 0.000000000000E+00 1.071241359496E+00 1.347587521587E+00 0.000000000000E+00 4.289644229145E+02 -7.160881264496E+02 0.000000000000E+00 1.522966693942E+00 -1.492968822853E+03 0.000000000000E+00 3.380628654650E+01 5.810158433530E+01 0.000000000000E+00 8.565169394323E-01 2.806547211940E+03
 0.000000000000E+00 0.000000000000E+00 0.000000000000E+00 0.000000000000E+00 0.000000000000E+00 0.000000000000E+00 0.000000000000E+00 0.000000000000E+00 0.000000000000E+00 0.000000000000E+00 0.000000000000E+00 0.000000000000E+00 0.000000000000E+00 0.000000000000E+00 0.000000000000E+00 0.000000000000E+00 0.000000000000E+00 0.000000000000E+00 0.000000000000E+00 0.000000000000E+00 0.000000000000E+00 0.000000000000E+00 0.000000000000E+00 0.000000000000E+00 0.000000000000E+00 0.000000000000E+00 0.000000000000E+00 0.000000000000E+00 0.000000000000E+00 0.000000000000E+00 0.000000000000E+00 0.000000000000E+00 0.000000000000E+00 0.000000000000E+00 0.000000000000E+00 0.000000000000E+00 0.000000000000E+00 0.000000000000E+00 0.000000000000E+00 0.000000000000E+00 0.000000000000E+00 0.000000000000E+00 0.000000000000E+00 0.000000000000E+00 0.000000000000E+00 0.000000000000E+00 0.000000000000E+00 0.000000000000E+00
 2.358015117393E+00 1.308401428174E+00 0.000000000000E+00 -2.831075503728E+00 2.116811301868E+00 0.000000000000E+00 -1.925571277372E+00 5.415699895897E+00 0.000000000000E+00 6.140108519839E+00 7.304353825154E+00 0.000000000000E+00 1.312830930237E+01 -2.429324327301E+01 0.000000000000E+00 -2.416231125190E+00 -1.765676180894E+00 0.000000000000E+00 -2.172037374324E-01 -8.228947510591E+00 0.000000000000E+00 1.131905270716E-01 4.394460222298E-01 0.000000000000E+00 -5.566995112861E+00 1.829040362672E+01 0.000000000000E+00 -1.634536444000E+01 1.032544471069E+01 0.000000000000E+00 -4.399488265679E-01 -5.133834621943E-02 0.000000000000E+00 -1.513565266646E+03 -5.302438265024E+02 0.000000000000E+00 1.040500263211E+00 5.145468588877E+00 0.000000000000E+00 -1.267382965950E+03 4.334786410032E+02 0.000000000000E+00 4.774908133717E+01 -3.634957245774E+00 0.000000000000E+00 4.002204968758E+01 -1.855759698183E+00 0.000000000000E+00 3.074341427627E+03
 2.201676862779E-01 6.097844704933E-02 0.000000000000E+00 -2.005603767754E-01 1.568294130950E-01 0.000000000000E+00 -1.584108437795E-01 4.718926389300E-01 0.000000000000E+00 5.010990214933E-01 5.843804608834E-01 0.000000000000E+00 1.019136848192E+00 -1.859364974704E+00 0.000000000000E+00 -2.290375075558E-01 -9.655354356115E-02 0.000000000000E+00 -5.085630630860E-02 -5.881887212197E-01 0.000000000000E+00 -1.710831756424E-02 3.905902892550E-02 0.000000000000E+00 -6.182279076325E-01 1.340768724656E+00 0.000000000000E+00 -1.288385996510E+00 8.081953875421E-01 0.000000000000E+00 4.574057785732E-02 5.822376033097E-02 0.000000000000E+00 -5.433308237596E+02 -8.703417403510E+02 0.000000000000E+00 5.138482208633E-02 3.139550306718E-01 0.000000000000E+00 4.170882703574E+02 -7.232269128053E+02 0.000000000000E+00 -8.597831932551E+01 1.832575720071E+00 0.000000000000E+00 7.165915664153E+01 -2.341647076389E-01 0.000000000000E+00 9.823301906222E+01 2.542311020547E+03
 0.000000000000E+00 0.000000000000E+00 0.000000000000E+00 0.000000000000E+00 0.000000000000E+00 0.000000000000E+00 0.000000000000E+00 0.000000000000E+00 0.000000000000E+00 0.000000000000E+00 0.000000000000E+00 0.000000000000E+00 0.000000000000E+00 0.000000000000E+00 0.000000000000E+00 0.000000000000E+00 0.000000000000E+00 0.000000000000E+00 0.000000000000E+00 0.000000000000E+00 0.000000000000E+00 0.000000000000E+00 0.000000000000E+00 0.000000000000E+00 0.000000000000E+00 0.000000000000E+00 0.000000000000E+00 0.000000000000E+00 0.000000000000E+00 0.000000000000E+00 0.000000000000E+00 0.000000000000E+00 0.000000000000E+00 0.000000000000E+00 0.000000000000E+00 0.000000000000E+00 0.000000000000E+00 0.000000000000E+00 0.000000000000E+00 0.000000000000E+00 0.000000000000E+00 0.000000000000E+00 0.000000000000E+00 0.000000000000E+00 0.000000000000E+00 0.000000000000E+00 0.000000000000E+00 0.000000000000E+00 0.000000000000E+00 0.000000000000E+00 0.000000000000E+00
 -6.671269212903E-02 6.118077626805E-02 0.000000000000E+00 -1.229565111041E+03 4.494991091546E+02 0.000000000000E+00 7.138841916408E-01 9.479955507525E-01 0.000000000000E+00 6.198568895509E-01 8.113537978495E-01 0.000000000000E+00 1.781760839308E+00 -2.456284933200E+00 0.000000000000E+00 3.999188151198E+01 -4.399961294196E-01 0.000000000000E+00 -1.569719413263E-01 -7.104960047271E-01 0.000000000000E+00 -2.030583196479E+01 3.604378827670E+01 0.000000000000E+00 -2.102151969877E+00 9.289791133357E-01 0.000000000000E+00 -1.785331662305E+00 7.629660380414E-01 0.000000000000E+00 -9.363706451487E-03 4.176977714853E-02 0.000000000000E+00 1.136065991027E-01 1.931729460950E-01 0.000000000000E+00 4.416160279090E-01 5.110314317095E-01 0.000000000000E+00 -1.149704248975E+03 -3.956295269785E+02 0.000000000000E+00 -9.397472379029E-02 -2.093626062287E-01 0.000000000000E+00 3.694608067894E+01 -3.317911800492E-01 0.000000000000E+00 -1.797852451515E+01 -3.258452302584E+01 0.000000000000E+00 2.743838024079E+03
 6.150060807696E+00 3.041889794583E+00 0.000000000000E+00 4.501637274868E+02 -7.395040839943E+02 0.000000000000E+00 -7.106508507800E+00 1.294042707766E+01 0.000000000000E+00 1.519309514975E+01 1.838176821178E+01 0.000000000000E+00 3.195072415206E+01 -6.050347273784E+01 0.000000000000E+00 6.099143501493E+01 -4.815939144644E+00 0.000000000000E+00 -1.480357874711E-01 -2.065341264092E+01 0.000000000000E+00 -3.266518302353E+01 6.058281908545E+01 0.000000000000E+00 -1.083642288659E+01 4.648584150889E+01 0.000000000000E+00 -4.060984512557E+01 2.617924087228E+01 0.000000000000E+00 -1.076422894591E+00 -3.131820419182E-01 0.000000000000E+00 4.683468920562E+00 6.412011202425E+00 0.000000000000E+00 2.720130621076E+00 1.302342359336E+01 0.000000000000E+00 -3.838165959243E+02 -6.682469595911E+02 0.000000000000E+00 -3.016399308006E+00 -6.210959894021E+00 0.000000000000E+00 -6.298704668145E+01 -4.219185578408E+00 0.000000000000E+00 2.311417788151E+01 5.702361887600E+01 0.000000000000E+00 -6.177008981577E+00 2.783526621262E+03
 0.000000000000E+00 0.000000000000E+00 0.000000000000E+00 0.000000000000E+00 0.000000000000E+00 0.000000000000E+00 0.000000000000E+00 0.000000000000E+00 0.000000000000E+00 0.000000000000E+00 0.000000000000E+00 0.000000000000E+00 0.000000000000E+00 0.000000000000E+00 0.000000000000E+00 0.000000000000E+00 0.000000000000E+00 0.000000000000E+00 0.000000000000E+00 0.000000000000E+00 0.000000000000E+00 0.000000000000E+00 0.000000000000E+00 0.000000000000E+00 0.000000000000E+00 0.000000000000E+00 0.000000000000E+00 0.000000000000E+00 0.000000000000E+00 0.000000000000E+00 0.000000000000E+00 0.000000000000E+00 0.000000000000E+00 0.000000000000E+00 0.000000000000E+00 0.000000000000E+00 0.000000000000E+00 0.000000000000E+00 0.000000000000E+00 0.000000000000E+00 0.000000000000E+00 0.000000000000E+00 0.000000000000E+00 0.000000000000E+00 0.000000000000E+00 0.000000000000E+00 0.000000000000E+00 0.000000000000E+00 0.000000000000E+00 0.000000000000E+00 0.000000000000E+00 0.000000000000E+00 0.000000000000E+00 0.000000000000E+00