#BIOSYM hessian 1
@Type: Hessian Update
@Units
 distance: 	A
 energy: 	Kcal/Mol
#header
@natom 72

#label
C1      C2      C3      C4      C5      C6      C7      C8      C9      C10     C11     C12     C13     C14     C15     C16     C17     C18     C19     C20     C21     C22     C23     C24     C25     C26     C27     C28     C29     C30     C31     C32     C33     C34     C35     C36     C37     C38     C39     C40     C41     C42     C43     C44     C45     C46     C47     C48     H49     H50     H51     H52     H53     H54     H55     H56     H57     H58     H59     H60     H61     H62     H63     H64     O65     H66     C67     O68     O69     H70     O71     H72

#element
C  C  C  C  C  C  C  C  C  C  C  C  C  C  C  C  C  C  C  C  C  C  C  C  C  C  C  C  C  C  C  C  C  C  C  C  C  C  C  C  C  C  C  C  C  C  C  C  H  H  H  H  H  H  H  H  H  H  H  H  H  H  H  H  O  H  C  O  O  H  O  H 

#matrix
216
 2.800797213405E+03
 -2.248998420300E+01 2.819263141232E+03
 -1.784437164033E+01 -1.024217884588E+01 1.930084302807E+02
 3.760964916442E+01 6.471479939768E+01 -1.058667790703E+00 2.784762391429E+03
 1.209743924788E-01 -6.672933470803E-01 1.794946931007E-01 -3.129109411351E+01 2.723805419860E+03
 -3.180280497877E-01 -3.309633298869E-03 8.471527109896E+00 -1.248842545267E+01 -2.295418408232E+01 1.886766919844E+02
 -1.968830066598E+01 3.442845268232E+01 4.912310563964E-02 -1.398225256186E+00 6.316894994554E-01 2.318093653414E-01 2.828776525115E+03
 -3.267010493378E+01 5.926394776279E+01 -3.360408607582E-01 7.306177886396E-01 -2.871021839472E-01 3.628702523535E-02 3.083870792912E+01 2.750150194734E+03
 4.875276010328E-02 -3.365389785041E-01 8.891125414236E+00 -6.620974693467E-02 7.697960261058E-02 5.553476227505E-03 -8.871446826400E+00 -1.578401909754E+00 1.890919243890E+02
 3.733191570483E+01 -6.792029972049E+01 3.220260475055E-01 -2.025865737019E+01 3.544392183493E+01 -1.820666305949E-01 4.004372626063E+01 6.883251523526E+01 -7.281967300133E-01 2.791350873161E+03
 -3.774022421579E-01 9.048414114207E-01 -1.031873032817E-01 -3.143773403753E+01 5.685079764797E+01 -5.734712081507E-01 -4.885305521754E-01 -9.972494062858E-01 -4.782277287130E-02 3.859513761882E+00 2.818637097063E+03
 -1.568960701983E-01 7.133323675250E-01 8.903150281027E+00 -3.547420849856E-01 -4.986049048292E-01 8.618097739376E+00 -1.387901279759E-01 -4.363922028264E-02 9.647325196200E+00 -7.370414146461E+00 -1.375163062816E+01 1.950533005384E+02
 -3.267771883730E-01 -7.565114160391E-02 -3.607607156093E-02 -7.781252899677E-01 3.428758988753E-01 -1.096269460589E-01 5.000293508975E+01 -8.421490746338E+01 3.921605673954E-01 -2.107275085343E+01 3.698379488651E+01 -1.476746342513E-01 3.176917926579E+03
 -2.767099821896E-02 -3.708501904589E-01 1.820843897602E-01 -5.688504745453E-01 1.889598399195E-01 -1.901157480716E-01 -9.114168350107E-01 1.252042345278E+00 -1.359353932718E-01 -3.428126610850E+01 5.979458201814E+01 -2.491610403968E-01 1.744369172859E+02 3.367719344611E+03
 -1.774085835408E-01 7.053471482143E-02 -6.387412148549E-05 -4.323313996772E-01 1.089606761695E-01 1.081394064092E-01 1.099368857022E-01 5.154695313771E-01 1.104193881074E+01 1.953545892177E-01 -5.455008458282E-01 1.024030770918E+01 -2.900082613807E+00 -1.087217536629E+01 1.951396228623E+02
 -1.225418603307E+03 4.550094790866E+02 7.119301887178E+00 -4.565136627965E+02 -1.857120807876E+01 1.675114623305E+00 2.634433158281E-01 -2.847935750690E-02 7.709778658188E-02 3.445518544975E-01 -1.442657636914E-01 4.356649335664E-01 2.698626187237E-01 1.569460255731E-01 1.768419550965E-01 2.816871769019E+03
 4.480209267056E+02 -7.499436116505E+02 5.040244524586E-01 -1.667465387857E+01 -1.395718428828E+03 1.050138515043E+01 -4.421829950773E-01 5.340424014778E-01 -9.952812693365E-03 -1.098499551568E-01 1.194433900315E-01 -5.647480371787E-01 -2.598605276249E-01 8.286363675849E-02 -1.828805350773E-01 -1.546426997909E+00 2.746629659453E+03
 6.642082980755E+00 6.562704342917E-02 -8.293431914629E+01 2.578041470768E+00 1.180686764441E+01 -7.927850088252E+01 1.476137189116E-01 4.717362479608E-02 4.663165971398E+00 -2.793692144863E-01 4.604660186742E-01 -8.597834312904E+00 -1.091581199849E-01 2.485966874185E-02 -4.504546195446E-03 -2.487807168826E+01 -2.012548226144E+01 1.909310631991E+02
 -1.212823130232E+03 -4.123940192067E+02 8.477983799213E+00 2.093124859282E+00 -9.624168066354E-01 -3.363438736077E-01 -1.235200955694E+03 4.423201938880E+02 4.439788956868E+00 -4.726058588350E+02 -1.122280975355E+01 1.420427115364E+00 3.826449711109E-01 1.892527767780E-01 1.351435770029E-01 -2.024323992877E+01 -3.209723897409E+01 7.138102934492E-01 2.806146294238E+03
 -4.122310476032E+02 -6.980455180233E+02 5.435347070495E+00 -5.555465538980E-02 2.729249242769E-02 -2.191660177760E-01 4.518442725021E+02 -7.370085267491E+02 -3.362704893766E-01 -1.520100359322E+01 -1.463322856797E+03 6.277206149344E+00 1.658826967467E-02 -4.851309153505E-02 -3.963660632411E-01 3.535787055513E+01 5.892945650241E+01 -3.448518861029E-01 -1.806758531965E+01 2.777658368405E+03
 9.196030613601E+00 4.463776455064E+00 -8.170144374015E+01 1.089267035340E-01 1.163427967046E-01 -8.888093185149E+00 3.648625976686E+00 -1.985867063969E-01 -8.312256265713E+01 1.686463381099E+00 6.227414990909E+00 -8.276838930310E+01 3.333094548378E-04 2.551102651739E-01 -1.039858899332E+01 1.388412996453E-02 2.175695838050E-01 8.458813805259E+00 -1.443703534035E+01 -1.093080713765E+01 1.926653633568E+02
 5.571304315274E-01 4.006995948028E-01 1.682874639429E-01 -1.194400537336E+03 -4.160329766968E+02 8.217415632128E+00 5.296104934280E-01 -2.046586769147E-02 1.287732959839E-01 -1.187086192446E+03 4.443090169829E+02 1.463848759310E+00 2.312975074071E-01 2.884965244597E-01 1.892469462913E-01 3.582536980793E+01 -5.033195271799E-02 -2.121601931623E-01 4.017118352210E+01 -6.601634392723E-01 1.066736947475E-01 2.726286248458E+03
 2.161467344149E-01 8.976542417558E-02 9.301256803643E-02 -4.168105822539E+02 -6.931847621106E+02 7.264741421997E+00 2.750166192836E-01 -2.874332626834E-01 -4.602310971989E-02 4.462177318931E+02 -7.397270814404E+02 3.465823754954E+00 1.605061793099E-01 -2.285734173771E-02 -2.170186565293E-02 -6.454502537123E+01 1.665257950219E+00 2.831279679056E-02 6.618015990816E+01 -8.880225684180E-01 -3.205266405622E-01 -9.016557024907E+00 2.743262175973E+03
 -1.225519883334E-01 -3.563743984632E-01 -8.911108100937E+00 9.952569249489E+00 5.873359637866E+00 -8.000656714363E+01 -3.819264116355E-02 1.448739600177E-01 4.688353786789E+00 7.938419809934E-01 3.082167271641E+00 -8.111982929169E+01 2.423081323588E-01 5.671675180685E-02 4.589564376997E+00 -9.563703590070E-02 3.546090748442E-01 8.308271384649E+00 -3.147696646188E-01 -6.731589479390E-02 9.124506580014E+00 -1.065427941521E+01 -2.222868009590E+01 1.864071756034E+02
 1.464807917800E-01 1.213752021526E-01 1.187852606395E-01 4.476655994282E-01 -1.564880751541E-01 -1.422226930374E-01 -1.266579476644E+03 -4.482440471614E+02 3.231246037995E+00 1.285851099102E-01 1.256611982795E-02 -9.623340141023E-02 -6.070377756581E+02 -2.443833969769E+00 3.469644570649E-01 -1.286457998786E-01 5.034525484692E-02 8.492553510672E-02 -2.169000403053E+01 -3.690934082405E+01 3.278746707481E-01 -1.542531153708E-01 -1.240171398134E-01 -4.179148767420E-02 2.651568975087E+03
 3.186955547921E-02 3.399111957365E-01 -5.492805751668E-02 4.793241932702E-01 -1.844517428477E-01 1.814548573756E-01 -4.630260355507E+02 -7.728659475608E+02 2.156738395285E+00 2.176662077262E-01 2.426735191729E-02 -5.432462238325E-02 -2.402342353732E+01 -1.800958052882E+03 5.541326036465E+00 -1.383853375327E-01 -7.465926871184E-02 1.126252725626E-01 3.587470127542E+01 6.169602498317E+01 -3.199635950781E-01 -2.276589913956E-01 -1.702676658058E-02 -2.618685104023E-01 1.996743201334E+02 3.015426458925E+03
 -5.029394053316E-02 -4.821151788412E-02 4.735217432580E+00 1.725275079405E-01 -9.900866199361E-02 -6.598674867914E-02 3.863995854475E+00 1.831007419854E+00 -7.920234626150E+01 -1.213796089201E-02 1.904264779168E-01 -1.040820950649E+01 4.548369033138E-01 5.382068189557E+00 -9.437941080454E+01 -6.409769846581E-02 1.536209426819E-01 -5.777068301670E-02 -7.854478406192E-02 1.417476759256E-01 9.995047313349E+00 -1.849975074719E-01 9.407080231821E-03 8.722852905874E-02 -4.115230782336E+00 -8.707085352658E+00 1.737426464196E+02
 1.497704261464E-01 1.310276573806E-01 -1.421890977418E-01 4.181569244373E-01 -2.195792578976E-01 3.932432616256E-01 2.315705517654E-01 -1.381954775890E-01 1.322802637030E-02 -1.250012242830E+03 -4.327917956720E+02 5.296182034083E+00 -1.222051011248E+03 4.287228542614E+02 7.242945797895E-02 -1.351059516261E-01 8.681599636498E-02 9.586898908280E-02 3.919084935362E+01 -5.075886703522E-01 -3.630528689095E-01 -2.079285266613E+01 -3.349772688873E+01 5.745121060937E-02 5.011848533297E+01 -7.450513774718E-01 2.377431590183E-01 2.854418484335E+03
 -4.331345251475E-01 1.362771639407E-01 -2.157795171052E-01 -8.670096732960E-01 5.052225753920E-01 4.395559245276E-02 -2.601414029861E-01 2.372285664566E-01 1.335009315218E-01 -4.358914434198E+02 -7.316721246336E+02 4.498417360063E+00 4.357342241450E+02 -7.943638791604E+02 2.577107689339E+00 1.453985435233E-01 -5.088376567928E-01 -2.645001477987E-01 -6.891687658504E+01 9.169157446124E-01 1.986532866960E-01 3.642028650407E+01 5.934908090327E+01 1.410812320744E-01 8.128640847117E+01 -1.398668644980E+00 -2.486234696324E-02 8.446014935716E+00 2.964408306812E+03
 1.479644106745E-01 1.051210823827E-01 4.556216799368E+00 1.361327870050E-01 -1.168541683730E-01 4.601650873944E+00 -2.268577844940E-01 -3.363212382882E-01 -1.052589853753E+01 5.592588349509E+00 4.619748016846E+00 -8.774768875299E+01 -2.993164341352E-01 2.716499339344E+00 -8.682737693966E+01 -6.430965035022E-02 5.693680579766E-02 3.683626670314E-02 4.070337106156E-02 2.842176472278E-01 9.106683125174E+00 -4.137202183670E-01 5.985834068829E-02 9.481388633544E+00 -1.523521709140E-01 4.632415363769E-02 1.058274508747E+01 -5.918213288903E+00 -1.651071918094E+01 2.023238952412E+02
 -7.404288315853E+00 -6.798258448655E+00 5.684721314543E-01 -3.449611290587E+01 1.632302408810E+01 -3.685665965850E-01 -7.288285907706E+00 1.672052854059E+00 3.448509145038E-01 -4.703437848324E+00 8.322409743814E-01 1.105895968541E-01 -2.547412309117E+00 -4.003046450750E+00 -1.764579385904E-01 3.638035514988E+00 -1.079322357810E+01 -7.346080313396E-01 1.023753851182E+01 6.280997080603E-01 -4.473706794555E-01 1.169522346635E+01 6.041756539092E+00 -4.230766439124E-01 2.261379313020E+00 3.883600766326E+00 -3.897327159602E-01 1.678262493208E+00 -3.020815872985E+00 3.120404242791E-01 2.676306441402E+03
 3.065628444635E+00 2.494915537697E+00 -3.276036467397E-01 1.494003870650E+01 -7.942591373519E+00 -1.816092151197E-01 3.148109547285E+00 -1.063808135490E+00 -1.052532152596E-01 1.660872884465E+00 -6.017932529915E-01 -7.540017144558E-01 7.257874246863E-01 1.551694542206E+00 2.440448151389E-01 -9.368128456496E-01 6.309996956310E+00 -2.938287433280E-01 -4.137293903259E+00 1.341287681664E-01 3.233516480920E-01 -4.838566274948E+00 -2.790531570137E+00 1.254250485107E+00 -8.747669815519E-01 -1.611949205413E+00 2.884826925079E-01 -3.977924406964E-01 1.381661139549E+00 -5.130880939010E-01 5.386732182015E+01 2.637126480505E+03
 -1.897642518304E-01 -1.179324853615E+00 -1.229127542702E-01 -5.694545681496E-01 8.574441879164E-01 4.446930890063E-02 2.185895018863E-01 -1.116340167410E+00 6.474128680450E-01 -8.622823064997E-01 -3.837361688846E-01 -1.412043428762E+00 -6.676976532350E-02 -6.080547342224E-01 1.780386869930E+00 2.029644990073E+00 6.631340606342E-01 3.120118873451E+00 3.705290654697E-01 6.123806237702E-01 4.855676783518E-01 6.706038265261E-01 -6.472307529663E-01 2.357153054626E+00 -2.446551931345E-01 4.150408593123E-01 9.437934523020E-02 2.621372497907E-01 4.711748914631E-01 -1.673892424313E+00 -4.255884986283E+01 -3.039623405335E+01 2.049974961179E+02
 -3.667392188873E+00 -1.496599948024E+00 1.823284229507E-01 -1.546937811452E+01 7.984209827006E+00 1.369578339797E-01 -3.198111228776E+00 2.227327680627E+00 2.178084770799E-01 -1.065229431517E+00 6.875462007199E-01 -8.934409654508E-02 -1.265980630023E+00 -7.813671377641E-01 3.870854471219E-01 4.237209475404E-01 -7.023706841103E+00 -8.034512760814E-02 4.389907447889E+00 -5.644086886717E-01 -4.196804767108E-02 4.659357860254E+00 3.372936517824E+00 1.167064551202E-01 8.278359645661E-01 8.232809187244E-01 -2.053865948981E-01 5.086741788585E-01 -2.517738514440E+00 -1.026799440959E-01 -4.380587057605E+01 1.239988945637E+02 5.491618501969E-01 2.675650479784E+03
 -5.063564681474E+00 -3.780451675789E+00 3.948967383534E-01 -2.681345284869E+01 1.395137866716E+01 9.557439796633E-02 -5.211702393243E+00 2.423388994725E+00 3.619976214701E-01 -2.538477759582E+00 1.041435117898E+00 7.823330084482E-01 -1.062337946920E+00 -2.159154679332E+00 1.574949151611E-01 5.757739504349E-01 -1.110676520416E+01 3.113354633379E-01 6.925317240272E+00 -4.072556583716E-01 -4.807836049876E-01 8.543200407049E+00 5.097993719830E+00 -1.184253880953E+00 1.349698398321E+00 2.220678586613E+00 -6.187936096577E-01 4.707682010154E-01 -2.939468459719E+00 1.378800280812E-01 -1.640838841977E+02 7.742973322107E+01 -2.862588026761E+00 1.769258301663E+02 2.787297881601E+03
 4.797333854918E-01 6.911986735266E-01 -7.015286797637E-02 2.894049028373E+00 -1.253220910035E+00 -7.004777900585E-03 2.802300316447E-01 -2.456021260256E-02 -1.141646765179E-01 4.145545527839E-01 -1.857277381604E-02 1.736348891048E-02 4.096095037480E-02 6.474685994265E-02 -4.175794281306E-01 -9.962955505109E-01 2.191777614189E-01 9.330748141297E-02 -6.643715089434E-01 -1.872717522432E-01 -3.460375568191E-03 -1.019699098877E+00 4.142536616780E-02 -1.388369386825E-02 -1.193917796991E-01 -1.076774753584E-01 8.222596285655E-02 -5.503016163257E-02 3.202159623210E-01 4.692487010616E-01 5.614487628207E+00 -3.926903120901E+00 1.079356545116E+01 -4.330124461107E+01 -5.424861270050E+01 1.463808500337E+02
 -2.091645240640E+01 -3.410936245315E+01 1.969477319724E-01 3.754515341321E+01 -5.441217861967E-02 -9.849640177938E-02 -2.762279729625E-01 1.463559770509E-01 -1.549804611285E-01 -1.274577528772E-01 -1.905310819360E-02 -4.186113282981E-01 -4.055620778437E-01 -5.411613265102E-02 -2.551748790640E-01 -1.251416873456E+03 -4.325247192076E+02 1.535147346146E+01 4.664410869915E-01 2.504504259031E-02 -1.353870334139E-01 1.316727835613E-01 2.614149657448E-01 6.843429106307E-01 9.302402492189E-02 1.136201240290E-02 8.171993329123E-02 2.202931697845E-01 -2.184002893244E-01 1.045087803352E-01 -1.779763536032E+01 3.420467266317E+01 -1.645979897511E+00 4.870846924824E-01 3.283195686134E+00 1.711310758597E-01 2.772364679511E+03
 3.643888957308E+01 6.031412906408E+01 -8.192578569780E-01 -6.725220689264E+01 9.668548201326E-01 1.640336730862E+00 -2.079949362783E-01 -2.970698532165E-01 3.266743782702E-02 -2.376204275099E-01 -1.228923203234E-01 6.229440734371E-02 -4.835133470859E-02 -3.433373823771E-01 8.085734453658E-02 -4.387124718396E+02 -7.176465408623E+02 7.815282808014E+00 1.999696079899E-01 1.651228719255E-01 2.806812037200E-02 3.647937310619E-01 -2.075781074461E-03 3.133474142876E-01 1.561198611554E-01 2.984083727909E-01 -9.866593912011E-02 7.612313734113E-02 2.095616866111E-01 -8.932766583622E-02 -3.521990942195E+01 5.747097957526E+01 -2.994923138615E+00 1.179256882068E+00 6.500346476220E-01 1.611735324810E+00 2.692369018777E+01 2.776076795536E+03
 -4.129922679670E-01 -1.352150763425E+00 9.702012421080E+00 -6.106056244015E-01 7.696724883835E-01 9.687166306049E+00 -1.501699748791E-01 -4.247846065458E-01 -2.101837284490E-02 -7.237622831069E-01 4.237024265559E-01 3.759554618145E-01 -2.327548862304E-01 -6.828149483103E-02 5.066517505683E-02 1.649160288213E+01 1.042141894147E+01 -8.273607522949E+01 1.026002919835E+00 3.261347098999E-01 4.545776441889E+00 1.795484180124E-01 -4.681601235111E-01 3.908249819015E+00 -1.209886694344E-02 2.594121774938E-01 -6.660065057970E-02 2.902245927324E-01 -2.395179811433E-01 1.172125004862E-01 -1.337853193876E-01 -2.951787345008E+00 7.531053560826E+00 3.417099524412E-01 6.952994072161E-01 -1.518194547840E-01 -2.896682612602E+01 -1.945140741025E+01 1.907482981637E+02
 -5.377522532077E+00 -2.668475131887E+00 2.302421357780E-01 -3.962410689279E+01 -2.101309839328E+01 -1.449066810604E+00 -4.531991883137E+00 2.662214515484E+00 -6.197552580746E-02 -1.993918833902E+00 7.223035757763E-01 -9.002321853923E-01 -2.400170558166E+00 -1.475462231125E+00 -8.871488707265E-01 1.926278552878E+00 -8.608432433083E+00 -1.719574098422E-01 6.514922507491E+00 -1.140395376806E-01 5.457222650907E-02 6.694731515186E+00 4.536181874827E+00 7.257480174403E-01 1.280505365821E+00 1.397930032892E+00 2.257426876224E-01 1.370476886945E+00 -3.188221461469E+00 4.823273988178E-01 -7.388440933836E+01 -1.660620583342E+01 5.660745711861E+00 -7.736777366535E+01 -5.367325446583E+01 1.114069767298E+01 3.693256559346E+01 6.458741162068E+01 -2.375207673543E+00 2.732687448852E+03
 -5.221698209489E-02 3.691215504452E-01 1.500481633705E-01 3.373433398747E+01 5.700717327898E+01 -7.136679694036E-01 -9.740457175396E-02 3.379838996649E-01 7.648093864970E-02 2.177859314050E-01 2.073707434040E-01 3.812238033967E-01 3.416076383695E-01 3.240600989336E-01 2.215188744431E-01 -4.601027260541E-01 -5.143586720598E-01 4.231688946122E-01 -1.742182987257E-01 -3.888249179621E-01 -1.076663496332E-01 -3.157805896171E-01 1.696443483289E-01 -4.908214433792E-01 -1.404700961016E-02 -2.760178275703E-01 -1.991477705239E-01 -3.889887146026E-01 -2.199643398663E-01 -8.356268258672E-02 -2.502048758312E+00 6.608474908906E+00 3.162317424876E-01 -4.538352989074E+01 6.726005488192E+01 -1.374466904701E+00 4.936599505232E-01 -8.711817069694E-03 1.420757125492E+00 -8.201382000166E+01 2.749348358268E+03
 1.242202363124E+00 -5.802894762477E-02 2.617174753297E-02 1.198578869474E+00 -2.540610817540E+00 7.530071912272E+00 6.490979703227E-01 -3.916919840473E-01 3.764535500904E-03 2.515243738303E-01 -1.139672172139E+00 9.957390620980E-02 -1.614281430327E-01 -5.772686976419E-01 6.807885660509E-02 -2.087637162568E+00 -6.360367948795E-01 -8.372505922331E+00 -6.523361743706E-01 4.695863108509E-01 -4.796380435536E-02 1.477671948144E+00 5.654743760149E-01 4.087223956487E+00 -2.063165766919E-01 6.472804019257E-01 -7.180767049676E-02 6.307012080950E-01 6.644696608228E-01 -1.972040175272E-01 4.114341995612E-02 1.413350585357E+00 8.642185826190E+00 1.101610101004E-02 -1.899955362707E+00 1.336349829098E+01 4.993947571814E-03 1.092155420820E+00 7.819169163707E+00 -2.048846073662E+01 -3.688140671742E+01 1.882388371239E+02
 9.471480992383E+00 7.921247767100E+00 -5.202432913104E-01 4.665669157534E+01 -2.567218585592E+01 1.898992301815E+00 9.821528721964E+00 -4.467976306100E+00 2.044230939578E-02 4.401555416295E+00 -1.579241968217E+00 -8.528213242994E-02 3.800517937584E+00 4.513652179364E+00 1.688810475727E+00 -3.293703868268E+00 1.728059493995E+01 -4.497492962932E-01 -1.349159889733E+01 5.743215201005E-01 5.438905080780E-01 -1.514809869121E+01 -9.968638703930E+00 4.947946824795E-01 -2.362033591406E+00 -4.616745678478E+00 -4.803945209624E-02 -1.985357365294E+00 5.722480498753E+00 -1.471787574831E+00 -1.037977276697E+03 3.325814327112E+02 2.460819108592E+01 -3.489929198701E+02 2.116114205134E+02 -2.568004451337E+00 -1.486395154349E+00 1.095300334284E-01 7.819997707029E-01 1.596574732656E+02 7.017027044875E+00 -3.041704727017E+00 2.052240800014E+03
 1.377081676361E+00 7.022694846455E-01 2.395971722094E-01 1.145564308311E+01 -9.097090574026E+00 -1.937179482708E-01 2.386560636450E+00 -2.084462502967E+00 -1.315910478628E-01 -2.459063702725E-01 -7.592075845332E-01 -9.192776999301E-01 4.079516359596E-01 1.072732715447E+00 -5.361575949167E-03 2.598856685968E+00 7.597282926229E+00 -8.013638826752E-01 -2.662564197555E+00 1.466773138361E+00 2.404374753943E-01 -3.197595916600E+00 -3.798154866386E+00 1.115058703298E+00 -7.599075329357E-02 -1.308401511069E+00 3.263988930271E-01 1.344575245875E-01 1.823794728511E+00 -1.040310467493E-01 5.927186811842E+02 -7.950971923760E+02 6.047683686479E+00 -1.417837473957E+01 -1.545155382708E+03 2.066363210793E+01 -3.260564915209E+00 -5.815326965911E+00 4.561468057858E-01 4.331501207372E+01 7.212428479966E+00 -3.261834104111E+00 -3.654259053418E+02 2.676146705405E+03
 5.543556872668E-01 -1.930298508848E+00 2.013234005428E-01 2.303434655631E+00 -8.760247530483E-01 5.597079727259E-01 -2.939021402149E-01 -1.864566093315E+00 -5.819248652461E-01 -9.991629631592E-01 -2.536026002907E-01 1.579344828541E+00 -5.087587618920E-01 -1.668695053722E+00 -2.014654742920E+00 1.225428981614E+00 4.119061950328E+00 1.239929649152E+00 3.930442704675E-01 7.852726264000E-01 -4.303980477416E-01 -3.271215887341E-01 -3.755549272293E-01 -2.718942459778E+00 2.755411047446E-01 1.781848459942E+00 -8.276989549018E-03 6.887252800660E-01 1.654857535102E+00 1.724126469338E+00 3.438466452112E+01 -4.251620411362E+00 -9.652596242306E+01 2.282359987742E+01 6.110331626955E+01 -6.952855256415E+01 -1.132766132494E+00 -1.896285597189E+00 5.838357238400E+00 1.233720928192E+01 3.461601199237E+00 -9.598886721431E+00 -6.981856459657E+01 -5.724603781475E+01 1.960878935894E+02
 2.375805880318E+00 1.733098667612E+00 -1.604889211670E-01 9.137334108442E+00 -4.418272195282E+00 2.017884863183E+00 2.111740241305E+00 -7.131077056559E-01 6.575213570896E-02 1.191611816453E+00 -1.313774314144E-01 7.197888670357E-01 1.173694512295E+00 1.150423233751E+00 6.617733671911E-01 -2.079280375380E+01 3.797678340543E+01 5.378257624858E-01 -2.994259874195E+00 -2.423354440022E-01 9.753788079787E-03 -3.225058444216E+00 -1.852959003964E+00 -4.787354862926E-01 -7.219909140326E-01 -1.003926944761E+00 -1.731199003080E-01 -7.789295119083E-01 9.612314832657E-01 -2.684033004812E-01 -1.192942814479E+03 -4.485081737435E+02 2.443618085694E+01 2.165316413765E+01 3.722969010882E+01 -5.992615881008E+00 -1.165386889559E+03 4.255927869466E+02 1.040906531374E+01 -4.336022356990E+02 -2.325916110364E+01 3.259211367885E+00 -8.128191232254E+01 -4.190618683151E+01 -4.676691540541E+00 2.749197535335E+03
 4.165683701976E-01 5.911425741607E-01 -3.331634078361E-02 1.926023395968E+00 -1.258535219685E+00 -7.725784974598E-01 6.056613283230E-01 -1.333845875432E-01 3.421675208834E-02 2.660857363079E-01 5.720147199802E-02 9.812934636890E-02 1.176095382534E-01 4.783134416133E-01 1.835017406988E-01 -3.208198745897E+01 5.904855849442E+01 5.525323767073E-01 -6.374405021177E-01 1.073437168282E-02 1.544100088666E-01 -9.770107802844E-01 -8.029141530596E-01 -3.431904274164E-01 -1.913152466970E-01 -3.756296442634E-01 8.005110994690E-02 -2.449825028688E-02 7.161960231367E-02 -9.795632551648E-02 -4.207525098538E+02 -7.329912461562E+02 1.534659864419E+01 5.329843614976E+00 1.659964260447E+01 -4.613841561830E+00 4.237276862047E+02 -7.111256048947E+02 2.866483137207E+00 -4.802129766013E-01 -1.468289284177E+03 1.745567393807E+01 3.801578958987E+00 4.831435526577E+01 2.719888444687E+00 1.755320738273E+01 2.779225373187E+03
 4.970439509669E-01 3.333906769153E-02 4.582892081074E+00 -6.527913698213E-01 9.372229713900E-01 -9.933403748720E+00 8.960338455447E-02 -3.449840221778E-01 -1.421266084017E-01 -2.306866289145E-01 1.130075238651E-01 -4.050254690238E-01 -4.948381704431E-02 -2.526395357058E-01 -6.351975260176E-01 1.204710935978E+00 2.700404320237E-01 8.589861052115E+00 1.914850810868E-01 2.700125894545E-01 5.642013377100E-03 9.483701619011E-02 -5.227104931413E-01 3.609709383725E-01 -1.027581436709E-02 2.324058827279E-01 1.381859611481E-01 1.437380019033E-01 1.617622124984E-01 3.263775644361E-01 2.368468605957E+01 1.026369674517E+01 -8.755612318051E+01 1.915696406458E+00 -9.888323522535E-01 -1.079945794506E+01 1.112907455055E+01 1.640756978755E+00 -8.011423588899E+01 4.723494375347E+00 2.206099450550E+01 -8.090476239694E+01 -3.360580935529E+00 5.673608019085E+00 1.330978423222E+01 -4.020000290875E+01 -3.467699782052E+01 1.940121305497E+02
 5.803979717505E+00 2.336871844255E+00 -2.232857627373E-01 2.203882618767E+01 -1.107657674903E+01 7.320746328438E-01 4.741502060799E+00 -3.383746571316E+00 5.856935012768E-02 1.635879692996E+00 -1.066754163570E+00 5.857824587252E-01 2.364037311281E+00 8.854681238516E-01 7.134821640102E-01 -1.919800045447E+00 9.185941345186E+00 2.344125370958E-01 -6.718342136106E+00 5.625400412883E-01 1.486653701472E-02 -6.524111841286E+00 -4.692948435522E+00 -5.247423162368E-01 -1.262665107100E+00 -9.670794604979E-01 -1.062817890984E-01 -1.119258473359E+00 3.978823268683E+00 -4.236430055002E-01 1.167011282875E+02 -5.791590059598E+01 -3.213333056657E+00 -1.397304317467E+03 -3.834314331330E+02 2.139282734198E+01 7.277253291648E-01 -4.805576140050E-01 7.761578808746E-01 -1.253125220225E+03 4.743969700934E+02 3.742827030438E+00 -1.299430373481E+02 -6.092606508726E+01 -1.674943267407E+01 9.170211087071E+00 -1.179950947066E+01 -2.287235605203E+00 2.992879332625E+03
 -3.788849288342E-02 -5.421517845853E-02 -3.379866298428E-02 1.063834699023E+00 -9.727951265768E-01 1.162985387667E-01 1.373546721847E-01 -1.610002773257E-01 -3.306457475273E-02 -3.996166024111E-02 -1.659991296344E-01 -2.673653450845E-01 -2.605826520626E-01 3.632846734176E-02 1.022797087776E-01 4.800192660782E-01 9.914065927024E-01 -3.183783900673E-01 -1.567036817181E-02 1.661983495793E-01 4.762855963420E-02 -1.403887165113E-01 -2.550971729058E-01 4.826544783996E-01 4.917572104889E-02 -5.626133285586E-02 7.990355106362E-02 1.994257946312E-01 4.018109830758E-02 -1.039494989254E-01 8.200118590750E+00 -7.458525202276E+00 2.272592705279E+00 -4.826458329425E+02 -8.219844719489E+02 2.495672503157E+01 -1.081934423161E+00 -4.713395549678E-01 -3.361023102242E-01 4.644446794185E+02 -7.529924775343E+02 8.269646562620E+00 -1.033998925330E+02 -8.492775672272E+00 -6.464225299958E+00 7.088328423607E+01 -2.975079615228E+00 -3.485411323928E+00 1.259721010181E+01 2.538011395963E+03
 -1.773008209225E-01 4.625531258886E-01 -2.300304373753E-02 1.360961719024E-01 2.983265380668E-01 5.452891394972E+00 -1.289634021792E-01 1.499653646833E-01 8.881015699679E-02 -7.158252911749E-02 2.094825485767E-01 -5.442236760056E-02 1.206066547396E-01 9.581606938607E-02 2.762592466626E-01 -3.670699598348E-01 -9.274146512912E-01 -3.195681970243E-01 3.783529068669E-02 -2.225415297404E-01 5.655641373685E-02 -3.474212598418E-01 3.236777849954E-01 1.997739224359E-01 -1.654185725401E-02 -2.144577918895E-01 -3.227293523675E-03 -2.023675878937E-01 -2.731905209102E-02 -9.610011020913E-02 -2.263313206504E+00 2.315724413643E+00 -7.758637038100E+00 2.865339302048E+01 1.935868827446E+01 -7.235611254228E+01 -4.264170217958E-01 5.608055808580E-01 5.122813561834E+00 3.054661978571E+00 4.518279167136E+00 -7.912139408265E+01 1.069414865375E+01 3.427633422225E+00 1.042499571518E+01 -1.056488304182E-01 8.431961895747E-01 8.356088430498E+00 -3.654093471443E+01 -4.687363939293E+01 1.554012647721E+02
 3.421312653217E+00 1.421307950131E+00 2.665284553410E-02 -1.244240189698E+03 4.513578962995E+02 3.538892215380E+00 2.650598540813E+00 -1.845142973152E+00 6.291291138974E-02 8.886115186451E-01 -5.734996164010E-01 6.374059954159E-01 1.417207232827E+00 6.879290686324E-01 6.279620649351E-01 3.896346158314E+01 4.053161295848E+00 2.825196060353E-01 -3.789609802973E+00 2.923016011477E-01 -1.957310836087E-01 -2.335709928644E+01 3.324044131200E+01 -1.715076181992E+00 -7.009742680338E-01 -5.773597224124E-01 -2.820067116151E-01 -7.039737989956E-01 1.976698823625E+00 -3.648601035147E-01 6.730710458772E+01 -3.116183799814E+01 -2.254376740163E+00 3.361654332765E+01 5.725171437331E+01 -4.586122791860E+00 3.492947552151E-01 3.324461316525E-02 1.346322268126E+00 -1.084924810179E+03 -3.679861022472E+02 1.113017894141E+01 -9.764407801398E+01 -3.035466329239E+01 -8.998099728615E+00 1.833537787091E+01 -6.054655587172E+00 -9.826189863265E-01 -6.464449118888E+01 -3.580667909968E+01 1.643654964918E+00 2.732192354811E+03
 1.704595978605E+00 4.834186259431E-01 -1.579412766095E-01 4.745481101352E+02 -7.500638091030E+02 6.480499922753E+00 1.285655317129E+00 -1.105948707149E+00 1.060646705880E-02 2.912166137518E-01 -5.769828369858E-01 2.417622211567E-01 4.472844218203E-01 -1.520958073730E-01 2.404994953685E-01 6.614157802566E+01 5.829936440858E-01 -8.056778051384E-01 -1.673101013876E+00 3.446355063461E-01 1.292869866421E-02 -3.418549889075E+01 5.871308158560E+01 -1.532062770738E-01 -3.195623492838E-01 1.324996218487E-01 3.944144083599E-02 5.191368491257E-02 1.239994782062E+00 -4.843183791268E-02 2.721636732391E+01 -1.346166043531E+01 -1.710615154220E+00 1.520501936975E+01 2.569531719292E+01 -7.471812541745E-01 -1.109629892897E+00 -3.139567931970E-01 -5.566389969855E-01 -3.536876163712E+02 -6.621698590029E+02 1.323623495414E+01 -4.325885836967E+01 -1.816553796771E+01 -5.621876331343E+00 -7.090708651187E+01 -1.299049833501E+00 -8.828229348102E-01 1.258913333472E+01 5.717255477575E+01 -1.262039434314E-01 -4.259085600291E+01 2.842838440921E+03
 -3.057342825102E-01 1.028872793717E+00 4.601378987444E+00 2.178198133617E+00 5.085190857171E+00 -8.302820886614E+01 1.413874070248E-01 3.452848406757E-01 -2.427247204634E-02 8.897278484505E-01 2.405518772584E-01 4.351968701371E+00 2.542580537058E-01 -5.008870668594E-04 -2.285403032694E-01 2.941472800765E-01 -6.955152074623E-01 8.419644349598E+00 -6.439898832900E-01 -8.121561560049E-01 4.045860132956E-02 -5.923732811362E-01 1.703681495062E-01 9.882013086332E+00 -7.621297828072E-02 -2.107814664184E-01 6.930392118174E-02 -2.874444691722E-01 4.300677930608E-01 1.612017562209E-01 1.142764316742E+00 1.836077268148E+00 4.498095155964E+00 -1.622512928909E+00 -5.288535530764E-01 5.801990542383E+00 -8.649183873795E-01 -8.809576458261E-01 -8.974885931820E+00 1.492401437862E+01 8.176358055379E+00 -8.257205015136E+01 1.013452252539E+00 -7.437107293869E-01 3.785085180513E-01 -8.689377630342E-01 1.287440182149E+00 8.325592073894E+00 8.867896653440E-01 8.231127567171E-01 9.937737375185E+00 -1.961592897465E+01 -3.822444027802E+01 1.903057133897E+02