#BIOSYM hessian 1
@Type: Hessian Update
@Units
 distance: 	A
 energy: 	Kcal/Mol
#header
@natom 69

#label
C1      C2      C3      C4      C5      C6      C7      C8      C9      C10     C11     C12     C13     C14     C15     C16     C17     C18     C19     C20     C21     C22     C23     H24     C25     C26     C27     C28     C29     C30     C31     C32     C33     C34     C35     C36     C37     C38     C39     C40     C41     C42     C43     C44     C45     C46     C47     C48     C49     H50     H51     H52     H53     H54     H55     C56     H57     H58     H59     H60     H61     H62     H63     H64     H65     H66     O67     O68     H69

#element
C  C  C  C  C  C  C  C  C  C  C  C  C  C  C  C  C  C  C  C  C  C  C  H  C  C  C  C  C  C  C  C  C  C  C  C  C  C  C  C  C  C  C  C  C  C  C  C  C  H  H  H  H  H  H  C  H  H  H  H  H  H  H  H  H  H  O  O  H 

#matrix
207
 2.785970516753E+03
 -2.939849244577E+01 2.819553770681E+03
 0.000000000000E+00 0.000000000000E+00 0.000000000000E+00
 3.985283596621E+01 6.722097102710E+01 0.000000000000E+00 2.792391114813E+03
 -3.219266044246E-02 -3.892674482052E-01 0.000000000000E+00 -2.351309543585E+01 2.767929741413E+03
 0.000000000000E+00 0.000000000000E+00 0.000000000000E+00 0.000000000000E+00 0.000000000000E+00 0.000000000000E+00
 -1.852502454809E+01 3.300005217674E+01 0.000000000000E+00 -2.559277115677E-01 -6.736309117951E-01 0.000000000000E+00 2.798953246211E+03
 -3.363311024613E+01 5.862149516025E+01 0.000000000000E+00 -3.478843034442E-01 -2.027051973818E-01 0.000000000000E+00 -4.959571797279E+01 2.820422990667E+03
 0.000000000000E+00 0.000000000000E+00 0.000000000000E+00 0.000000000000E+00 0.000000000000E+00 0.000000000000E+00 0.000000000000E+00 0.000000000000E+00 0.000000000000E+00
 3.924100819208E+01 -6.845015450840E+01 0.000000000000E+00 -1.966984914738E+01 3.483711384098E+01 0.000000000000E+00 4.070703698531E+01 7.102866977496E+01 0.000000000000E+00 2.783176376953E+03
 -4.264618917098E-01 4.295556547151E-01 0.000000000000E+00 -3.332083483388E+01 5.920053741723E+01 0.000000000000E+00 1.544855539323E+00 2.138825284611E+00 0.000000000000E+00 -1.777064969102E+01 2.836277041184E+03
 0.000000000000E+00 0.000000000000E+00 0.000000000000E+00 0.000000000000E+00 0.000000000000E+00 0.000000000000E+00 0.000000000000E+00 0.000000000000E+00 0.000000000000E+00 0.000000000000E+00 0.000000000000E+00 0.000000000000E+00
 6.908670993052E-03 -4.683433288653E-02 0.000000000000E+00 6.585603940364E-02 -7.139147297643E-02 0.000000000000E+00 4.233858384331E+01 -7.459639929474E+01 0.000000000000E+00 -2.161066323089E+01 3.846279245947E+01 0.000000000000E+00 2.641658641146E+03
 -1.708548743131E-01 1.417900654504E-01 0.000000000000E+00 -1.139123482924E-01 2.185895287842E-01 0.000000000000E+00 -7.355024601741E-01 -1.062747495687E+00 0.000000000000E+00 -3.541631641864E+01 6.313943296471E+01 0.000000000000E+00 -2.201583677995E+02 2.895114692246E+03
 0.000000000000E+00 0.000000000000E+00 0.000000000000E+00 0.000000000000E+00 0.000000000000E+00 0.000000000000E+00 0.000000000000E+00 0.000000000000E+00 0.000000000000E+00 0.000000000000E+00 0.000000000000E+00 0.000000000000E+00 0.000000000000E+00 0.000000000000E+00 0.000000000000E+00
 -1.233642573310E+03 4.457199161796E+02 0.000000000000E+00 -4.652033228213E+02 -5.720636775161E+00 0.000000000000E+00 3.362607839417E-01 2.442283244898E-02 0.000000000000E+00 1.709850887060E-02 8.154412488509E-02 0.000000000000E+00 7.074536266142E-02 -1.859118072943E-01 0.000000000000E+00 2.823436656342E+03
 4.405184153405E+02 -7.390381008659E+02 0.000000000000E+00 -4.622546962392E+00 -1.433240332445E+03 0.000000000000E+00 6.164770312692E-01 9.458073411542E-01 0.000000000000E+00 5.044712118260E-02 -1.169283473021E-01 0.000000000000E+00 9.045770753521E-02 3.667129029080E-02 0.000000000000E+00 -1.868950826133E+00 2.782161171294E+03
 0.000000000000E+00 0.000000000000E+00 0.000000000000E+00 0.000000000000E+00 0.000000000000E+00 0.000000000000E+00 0.000000000000E+00 0.000000000000E+00 0.000000000000E+00 0.000000000000E+00 0.000000000000E+00 0.000000000000E+00 0.000000000000E+00 0.000000000000E+00 0.000000000000E+00 0.000000000000E+00 0.000000000000E+00 0.000000000000E+00
 -1.191682246611E+03 -4.128713014321E+02 0.000000000000E+00 -1.152732013662E-01 1.943931501198E-02 0.000000000000E+00 -1.265150673768E+03 4.470966051311E+02 0.000000000000E+00 -4.842348482699E+02 -8.909792771910E+00 0.000000000000E+00 -2.874272238644E-01 3.844715153493E-02 0.000000000000E+00 -1.951088452555E+01 -3.345890328567E+01 0.000000000000E+00 2.819866769895E+03
 -4.123235188886E+02 -7.041729447970E+02 0.000000000000E+00 1.366904546147E-01 1.377801977953E-01 0.000000000000E+00 4.498115277009E+02 -7.457687856205E+02 0.000000000000E+00 -1.046175455248E+01 -1.513704083898E+03 0.000000000000E+00 -1.337488810681E-01 2.380269741209E-01 0.000000000000E+00 3.413735260030E+01 5.844990918923E+01 0.000000000000E+00 -2.865009916130E+01 2.846210735695E+03
 0.000000000000E+00 0.000000000000E+00 0.000000000000E+00 0.000000000000E+00 0.000000000000E+00 0.000000000000E+00 0.000000000000E+00 0.000000000000E+00 0.000000000000E+00 0.000000000000E+00 0.000000000000E+00 0.000000000000E+00 0.000000000000E+00 0.000000000000E+00 0.000000000000E+00 0.000000000000E+00 0.000000000000E+00 0.000000000000E+00 0.000000000000E+00 0.000000000000E+00 0.000000000000E+00
 -1.990477321735E-01 1.220894059462E-01 0.000000000000E+00 -1.218780895729E+03 -4.210450765687E+02 0.000000000000E+00 -2.594634408850E-02 7.128482721499E-01 0.000000000000E+00 -1.227459072657E+03 4.396431547151E+02 0.000000000000E+00 -1.843101914110E-01 2.294459865233E-01 0.000000000000E+00 3.739040795228E+01 -2.262704966422E-01 0.000000000000E+00 4.139464183273E+01 -3.087372720212E-01 0.000000000000E+00 2.807762139785E+03
 -6.922268474304E-02 4.927580955486E-02 0.000000000000E+00 -4.235057685939E+02 -7.077217641304E+02 0.000000000000E+00 3.731283807398E-02 -6.390116564509E-01 0.000000000000E+00 4.381396789122E+02 -7.335091391812E+02 0.000000000000E+00 1.193077688495E-01 -3.566412003126E-01 0.000000000000E+00 -6.660554063119E+01 3.250671680292E-01 0.000000000000E+00 7.017298930837E+01 -5.136632621431E-01 0.000000000000E+00 -1.818308829049E+00 2.808288417318E+03
 0.000000000000E+00 0.000000000000E+00 0.000000000000E+00 0.000000000000E+00 0.000000000000E+00 0.000000000000E+00 0.000000000000E+00 0.000000000000E+00 0.000000000000E+00 0.000000000000E+00 0.000000000000E+00 0.000000000000E+00 0.000000000000E+00 0.000000000000E+00 0.000000000000E+00 0.000000000000E+00 0.000000000000E+00 0.000000000000E+00 0.000000000000E+00 0.000000000000E+00 0.000000000000E+00 0.000000000000E+00 0.000000000000E+00 0.000000000000E+00
 -1.681107673431E+00 4.309084633169E-01 0.000000000000E+00 4.116716285947E-01 5.546969171716E-01 0.000000000000E+00 -1.178298510672E+03 -4.020688256826E+02 0.000000000000E+00 2.100059864010E+00 -2.628615541771E+00 0.000000000000E+00 -5.203618254972E+02 7.372739254450E+00 0.000000000000E+00 -3.013428986937E-01 -8.459683603013E-01 0.000000000000E+00 -2.039611000142E+01 -3.499983751683E+01 0.000000000000E+00 -4.353182957281E-01 1.609281159093E-01 0.000000000000E+00 2.764048113353E+03
 1.655730067949E+00 -6.001298626145E-01 0.000000000000E+00 -4.235724540169E-01 -6.924940573252E-01 0.000000000000E+00 -4.271389908374E+02 -7.237064824933E+02 0.000000000000E+00 -2.996912051486E+00 6.787529621912E-01 0.000000000000E+00 6.008864562058E+00 -1.633620438346E+03 0.000000000000E+00 3.359528592339E-01 5.570024211437E-01 0.000000000000E+00 3.560557413498E+01 5.922104117539E+01 0.000000000000E+00 7.335507373361E-01 -8.501676928453E-02 0.000000000000E+00 -2.998589503080E+00 2.951445410161E+03
 0.000000000000E+00 0.000000000000E+00 0.000000000000E+00 0.000000000000E+00 0.000000000000E+00 0.000000000000E+00 0.000000000000E+00 0.000000000000E+00 0.000000000000E+00 0.000000000000E+00 0.000000000000E+00 0.000000000000E+00 0.000000000000E+00 0.000000000000E+00 0.000000000000E+00 0.000000000000E+00 0.000000000000E+00 0.000000000000E+00 0.000000000000E+00 0.000000000000E+00 0.000000000000E+00 0.000000000000E+00 0.000000000000E+00 0.000000000000E+00 0.000000000000E+00 0.000000000000E+00 0.000000000000E+00
 -8.411259799359E-02 2.062920512546E-02 0.000000000000E+00 4.377142777017E-02 6.054671666954E-02 0.000000000000E+00 1.474352306127E+00 7.570369472494E-01 0.000000000000E+00 -1.189434547993E+03 -4.201832830341E+02 0.000000000000E+00 -1.339210768479E+03 4.922374599042E+02 0.000000000000E+00 -8.801496385156E-02 8.013672762156E-02 0.000000000000E+00 3.915670960735E+01 -5.614057765450E-01 0.000000000000E+00 -1.950115700733E+01 -3.316702537823E+01 0.000000000000E+00 4.722693775958E+01 2.595148206885E+00 0.000000000000E+00 2.879776537808E+03
 -5.662852170318E-02 -7.145458490862E-03 0.000000000000E+00 1.395240955806E-01 8.330138156828E-02 0.000000000000E+00 3.472360900407E-01 1.280961492066E-01 0.000000000000E+00 -4.119228654377E+02 -7.097215178768E+02 0.000000000000E+00 4.902418615490E+02 -8.193047165128E+02 0.000000000000E+00 -1.034773680354E-01 8.303849172024E-03 0.000000000000E+00 -6.855450721390E+01 6.086956408393E-01 0.000000000000E+00 3.422119969863E+01 5.773454129890E+01 0.000000000000E+00 8.096533127694E+01 1.302141442756E+00 0.000000000000E+00 -9.251539761780E+01 2.849423682258E+03
 0.000000000000E+00 0.000000000000E+00 0.000000000000E+00 0.000000000000E+00 0.000000000000E+00 0.000000000000E+00 0.000000000000E+00 0.000000000000E+00 0.000000000000E+00 0.000000000000E+00 0.000000000000E+00 0.000000000000E+00 0.000000000000E+00 0.000000000000E+00 0.000000000000E+00 0.000000000000E+00 0.000000000000E+00 0.000000000000E+00 0.000000000000E+00 0.000000000000E+00 0.000000000000E+00 0.000000000000E+00 0.000000000000E+00 0.000000000000E+00 0.000000000000E+00 0.000000000000E+00 0.000000000000E+00 0.000000000000E+00 0.000000000000E+00 0.000000000000E+00
 -7.121755604230E-03 -4.077208772919E-02 0.000000000000E+00 -1.098489664089E-03 -2.734242031405E-03 0.000000000000E+00 7.752135409519E-03 -3.484197776964E-02 0.000000000000E+00 3.457190742330E-02 -1.193787951728E-02 0.000000000000E+00 4.335520175913E-02 -1.232886795507E-01 0.000000000000E+00 -8.140455068479E-03 -1.569177934516E-02 0.000000000000E+00 -2.504625179371E-02 -3.425555330385E-03 0.000000000000E+00 -1.834476084807E-02 1.639087295334E-02 0.000000000000E+00 -1.322617114378E-01 2.241214758675E-01 0.000000000000E+00 -6.718212644085E-02 3.163296066955E-02 0.000000000000E+00 2.810124046784E+03
 -4.305720513025E-02 3.407551529982E-03 0.000000000000E+00 1.276448134726E-02 -7.630280350078E-03 0.000000000000E+00 4.693456122202E-02 -1.002840159947E-01 0.000000000000E+00 5.051862210087E-03 -4.334949311707E-03 0.000000000000E+00 -6.102609336433E-02 2.646284093472E-02 0.000000000000E+00 -5.396602535098E-04 -3.762720358697E-02 0.000000000000E+00 2.308087989577E-02 -2.126396221416E-02 0.000000000000E+00 3.493171246442E-03 -4.731076735952E-03 0.000000000000E+00 1.511087287059E-01 -4.341948954765E-02 0.000000000000E+00 -2.414987909370E-03 2.043695890312E-03 0.000000000000E+00 1.412962152570E+00 2.800786622647E+03
 0.000000000000E+00 0.000000000000E+00 0.000000000000E+00 0.000000000000E+00 0.000000000000E+00 0.000000000000E+00 0.000000000000E+00 0.000000000000E+00 0.000000000000E+00 0.000000000000E+00 0.000000000000E+00 0.000000000000E+00 0.000000000000E+00 0.000000000000E+00 0.000000000000E+00 0.000000000000E+00 0.000000000000E+00 0.000000000000E+00 0.000000000000E+00 0.000000000000E+00 0.000000000000E+00 0.000000000000E+00 0.000000000000E+00 0.000000000000E+00 0.000000000000E+00 0.000000000000E+00 0.000000000000E+00 0.000000000000E+00 0.000000000000E+00 0.000000000000E+00 0.000000000000E+00 0.000000000000E+00 0.000000000000E+00
 -3.038391372488E-02 1.771183116461E-03 0.000000000000E+00 2.733896579471E-04 6.947883578286E-04 0.000000000000E+00 -1.064115226551E-02 1.457842059405E-01 0.000000000000E+00 7.202657673050E-03 -1.259022888138E-02 0.000000000000E+00 2.767425866823E-02 3.305655296857E-02 0.000000000000E+00 -3.166831390063E-03 1.682978788258E-02 0.000000000000E+00 -1.496489028300E-02 1.003905832017E-02 0.000000000000E+00 -7.760329009722E-03 3.543222060032E-04 0.000000000000E+00 -1.585547899505E-01 4.349130416680E-02 0.000000000000E+00 1.656843768388E-02 -1.610845031340E-02 0.000000000000E+00 4.139332175033E+01 7.183216013909E+01 0.000000000000E+00 2.781033170425E+03
 -4.803190011298E-02 1.677477711903E-03 0.000000000000E+00 1.462469327191E-02 6.467007144371E-03 0.000000000000E+00 1.864262672480E-01 2.463193498900E-01 0.000000000000E+00 3.926634202233E-02 -4.827442523537E-02 0.000000000000E+00 1.198044750619E-02 3.289891478090E-02 0.000000000000E+00 -1.798670811861E-03 -1.394551361109E-02 0.000000000000E+00 -1.981191916776E-02 -1.451058758060E-02 0.000000000000E+00 -2.300031904489E-02 8.720775197698E-03 0.000000000000E+00 -2.748999838114E-01 1.857184633723E-01 0.000000000000E+00 -1.057157852962E-03 -2.869906754623E-02 0.000000000000E+00 -8.642056023171E-01 -1.547940822749E+00 0.000000000000E+00 2.779623249715E+02 2.860811849741E+03
 0.000000000000E+00 0.000000000000E+00 0.000000000000E+00 0.000000000000E+00 0.000000000000E+00 0.000000000000E+00 0.000000000000E+00 0.000000000000E+00 0.000000000000E+00 0.000000000000E+00 0.000000000000E+00 0.000000000000E+00 0.000000000000E+00 0.000000000000E+00 0.000000000000E+00 0.000000000000E+00 0.000000000000E+00 0.000000000000E+00 0.000000000000E+00 0.000000000000E+00 0.000000000000E+00 0.000000000000E+00 0.000000000000E+00 0.000000000000E+00 0.000000000000E+00 0.000000000000E+00 0.000000000000E+00 0.000000000000E+00 0.000000000000E+00 0.000000000000E+00 0.000000000000E+00 0.000000000000E+00 0.000000000000E+00 0.000000000000E+00 0.000000000000E+00 0.000000000000E+00
 -2.026812203674E+01 -3.489950416311E+01 0.000000000000E+00 3.863386275595E+01 -1.224147516863E-01 0.000000000000E+00 -1.174948654238E-01 -3.548915352429E-01 0.000000000000E+00 -1.833130575568E-03 -8.436899602337E-02 0.000000000000E+00 -1.279025726644E-02 -8.922128790050E-02 0.000000000000E+00 -1.244408771768E+03 -4.348612404786E+02 0.000000000000E+00 -1.666129659332E-02 3.259690013107E-03 0.000000000000E+00 5.094991044758E-02 1.724222008445E-02 0.000000000000E+00 1.605765402779E-01 2.845966414435E-02 0.000000000000E+00 -4.840496882234E-02 8.188404357408E-02 0.000000000000E+00 -1.940348472911E+01 3.369980221170E+01 0.000000000000E+00 2.391063854121E-02 -9.134420027750E-03 0.000000000000E+00 2.777403342606E+03
 3.513887892714E+01 6.070211374628E+01 0.000000000000E+00 -6.788896772528E+01 2.812090588251E-01 0.000000000000E+00 1.735465032910E-04 -1.301782554071E-01 0.000000000000E+00 7.116166897752E-02 -1.612714534995E-02 0.000000000000E+00 -4.800773094331E-02 2.618595994424E-02 0.000000000000E+00 -4.396310014352E+02 -7.266988219494E+02 0.000000000000E+00 3.381473077510E-02 -8.833446252357E-02 0.000000000000E+00 -2.388476574942E-02 3.457637619492E-02 0.000000000000E+00 6.847387192013E-02 1.389691837491E-02 0.000000000000E+00 -6.552555594276E-02 -2.744306191375E-02 0.000000000000E+00 -3.281159091184E+01 5.709860206272E+01 0.000000000000E+00 -1.441625991625E-02 -5.437909883673E-03 0.000000000000E+00 1.570088429110E+01 2.806343382313E+03
 0.000000000000E+00 0.000000000000E+00 0.000000000000E+00 0.000000000000E+00 0.000000000000E+00 0.000000000000E+00 0.000000000000E+00 0.000000000000E+00 0.000000000000E+00 0.000000000000E+00 0.000000000000E+00 0.000000000000E+00 0.000000000000E+00 0.000000000000E+00 0.000000000000E+00 0.000000000000E+00 0.000000000000E+00 0.000000000000E+00 0.000000000000E+00 0.000000000000E+00 0.000000000000E+00 0.000000000000E+00 0.000000000000E+00 0.000000000000E+00 0.000000000000E+00 0.000000000000E+00 0.000000000000E+00 0.000000000000E+00 0.000000000000E+00 0.000000000000E+00 0.000000000000E+00 0.000000000000E+00 0.000000000000E+00 0.000000000000E+00 0.000000000000E+00 0.000000000000E+00 0.000000000000E+00 0.000000000000E+00 0.000000000000E+00
 3.870013024537E-02 -8.257498609016E-03 0.000000000000E+00 -1.896564205506E+01 -3.164370794656E+01 0.000000000000E+00 -2.220881266251E-02 2.916416492855E-01 0.000000000000E+00 -3.397103784092E-02 1.297433475292E-02 0.000000000000E+00 5.662379146500E-03 1.778676227179E-01 0.000000000000E+00 -2.355323301589E-02 8.044194384843E-02 0.000000000000E+00 1.157776134329E-02 5.397796951868E-03 0.000000000000E+00 1.015715817371E-02 -2.615309789586E-02 0.000000000000E+00 -1.374304047940E-01 -9.934069606253E-02 0.000000000000E+00 8.310970131630E-02 -4.807800013352E-02 0.000000000000E+00 3.963005693356E+01 -6.924878993621E+01 0.000000000000E+00 -2.294991452561E+01 4.004033816532E+01 0.000000000000E+00 3.991223833717E+01 6.703062253131E+01 0.000000000000E+00 2.772727043548E+03
 -1.524324355465E-01 -1.098478302962E-02 0.000000000000E+00 3.329358279271E+01 5.574586884797E+01 0.000000000000E+00 7.954796835972E-03 1.539012020617E-01 0.000000000000E+00 2.363959980629E-02 -5.075771519166E-02 0.000000000000E+00 -5.173364798424E-02 8.914770661460E-02 0.000000000000E+00 6.215554556189E-02 9.270735399030E-02 0.000000000000E+00 2.217933315850E-03 1.139876112681E-02 0.000000000000E+00 2.068750662806E-03 -2.915999060945E-02 0.000000000000E+00 -1.038108593041E-01 1.081280391240E-01 0.000000000000E+00 3.160560198245E-02 -4.333653361837E-04 0.000000000000E+00 6.383581389615E-02 -7.389574221162E-02 0.000000000000E+00 -4.245798928007E+01 7.396217831932E+01 0.000000000000E+00 7.776927572004E-02 1.695074012730E-02 0.000000000000E+00 -3.826959298303E+01 2.756582407082E+03
 0.000000000000E+00 0.000000000000E+00 0.000000000000E+00 0.000000000000E+00 0.000000000000E+00 0.000000000000E+00 0.000000000000E+00 0.000000000000E+00 0.000000000000E+00 0.000000000000E+00 0.000000000000E+00 0.000000000000E+00 0.000000000000E+00 0.000000000000E+00 0.000000000000E+00 0.000000000000E+00 0.000000000000E+00 0.000000000000E+00 0.000000000000E+00 0.000000000000E+00 0.000000000000E+00 0.000000000000E+00 0.000000000000E+00 0.000000000000E+00 0.000000000000E+00 0.000000000000E+00 0.000000000000E+00 0.000000000000E+00 0.000000000000E+00 0.000000000000E+00 0.000000000000E+00 0.000000000000E+00 0.000000000000E+00 0.000000000000E+00 0.000000000000E+00 0.000000000000E+00 0.000000000000E+00 0.000000000000E+00 0.000000000000E+00 0.000000000000E+00 0.000000000000E+00 0.000000000000E+00
 4.107243249172E-02 5.008471218391E-03 0.000000000000E+00 7.796831861247E-04 -6.023021106374E-03 0.000000000000E+00 -2.591343142099E-02 -7.537414799677E-02 0.000000000000E+00 -3.054189480137E-02 2.254473811659E-02 0.000000000000E+00 -3.741126133296E-02 7.864602540310E-02 0.000000000000E+00 3.149078471696E-04 -4.204457604421E-03 0.000000000000E+00 2.173342398212E-02 -9.170401381883E-03 0.000000000000E+00 1.518468138274E-02 -1.079513390403E-02 0.000000000000E+00 1.980676307790E-01 -2.273117294749E-01 0.000000000000E+00 3.931834602622E-02 -1.197696174839E-02 0.000000000000E+00 -1.237041165550E+03 4.324915174129E+02 0.000000000000E+00 -5.070782005166E+02 -1.401936994840E+01 0.000000000000E+00 1.145048983090E-03 1.266891047467E-02 0.000000000000E+00 2.483227055851E-02 4.474099437235E-02 0.000000000000E+00 2.842541647896E+03
 3.444913748342E-02 -8.892725601289E-04 0.000000000000E+00 -2.036738380007E-02 -5.886588149419E-03 0.000000000000E+00 -2.263550849464E-01 -1.939073183958E-01 0.000000000000E+00 -3.859495284631E-02 4.742082330285E-02 0.000000000000E+00 1.363705053235E-02 -3.654153294590E-02 0.000000000000E+00 4.499486889785E-03 3.387425082342E-02 0.000000000000E+00 9.416528775530E-03 2.413333748044E-02 0.000000000000E+00 1.969632238189E-02 -6.217026235905E-03 0.000000000000E+00 2.082550379865E-01 -1.739339020467E-01 0.000000000000E+00 2.847145857062E-03 2.721292890021E-02 0.000000000000E+00 4.346597277886E+02 -7.290762372539E+02 0.000000000000E+00 -2.400183799575E+01 -1.541586947901E+03 0.000000000000E+00 2.273481440315E-02 -2.003576938839E-03 0.000000000000E+00 5.735674993625E-02 -1.683771455548E-02 0.000000000000E+00 2.946029968398E+01 2.893226466148E+03
 0.000000000000E+00 0.000000000000E+00 0.000000000000E+00 0.000000000000E+00 0.000000000000E+00 0.000000000000E+00 0.000000000000E+00 0.000000000000E+00 0.000000000000E+00 0.000000000000E+00 0.000000000000E+00 0.000000000000E+00 0.000000000000E+00 0.000000000000E+00 0.000000000000E+00 0.000000000000E+00 0.000000000000E+00 0.000000000000E+00 0.000000000000E+00 0.000000000000E+00 0.000000000000E+00 0.000000000000E+00 0.000000000000E+00 0.000000000000E+00 0.000000000000E+00 0.000000000000E+00 0.000000000000E+00 0.000000000000E+00 0.000000000000E+00 0.000000000000E+00 0.000000000000E+00 0.000000000000E+00 0.000000000000E+00 0.000000000000E+00 0.000000000000E+00 0.000000000000E+00 0.000000000000E+00 0.000000000000E+00 0.000000000000E+00 0.000000000000E+00 0.000000000000E+00 0.000000000000E+00 0.000000000000E+00 0.000000000000E+00 0.000000000000E+00
 -4.191173348930E-02 3.747414815113E-02 0.000000000000E+00 4.883929333464E-02 8.439589143408E-03 0.000000000000E+00 3.184651880034E-01 2.654345071440E-01 0.000000000000E+00 4.769412551411E-02 -2.537713611619E-02 0.000000000000E+00 1.747363180832E-02 -4.418767463427E-03 0.000000000000E+00 -1.966849134284E+01 3.443142879960E+01 0.000000000000E+00 1.474693765842E-03 -4.409046298027E-02 0.000000000000E+00 -3.412708142073E-02 2.730877506932E-02 0.000000000000E+00 -2.863557444527E-01 2.235557664528E-01 0.000000000000E+00 -3.386406793290E-02 -5.675347169302E-02 0.000000000000E+00 -1.219514700476E+03 -4.267042725159E+02 0.000000000000E+00 -2.203424303109E-02 1.631269078616E-02 0.000000000000E+00 -1.176028061876E+03 4.225168390319E+02 0.000000000000E+00 -4.722173970335E+02 -6.036441188689E+00 0.000000000000E+00 -1.967450783592E+01 -3.419084305756E+01 0.000000000000E+00 2.752457250009E+03
 1.481548535513E-01 2.457317614666E-02 0.000000000000E+00 -2.217665074323E-02 -6.585654506432E-03 0.000000000000E+00 -1.492303818629E-01 5.001992453453E-02 0.000000000000E+00 -5.508349464078E-02 6.768987444433E-02 0.000000000000E+00 4.824010640033E-02 3.833981047982E-02 0.000000000000E+00 -3.317755469840E+01 5.825895480474E+01 0.000000000000E+00 -4.364053823419E-03 4.996313589198E-02 0.000000000000E+00 1.949617068857E-02 -2.132345587188E-02 0.000000000000E+00 2.839891177706E-02 -1.987154494077E-01 0.000000000000E+00 5.269629789892E-02 -5.329658023477E-03 0.000000000000E+00 -4.299631772957E+02 -7.160082141320E+02 0.000000000000E+00 5.366640860627E-02 4.037482815584E-02 0.000000000000E+00 4.239442865142E+02 -7.139100936978E+02 0.000000000000E+00 3.320181577405E+00 -1.497323578734E+03 0.000000000000E+00 3.425439570316E+01 5.961787660413E+01 0.000000000000E+00 3.073451694288E+00 2.809216509316E+03
 0.000000000000E+00 0.000000000000E+00 0.000000000000E+00 0.000000000000E+00 0.000000000000E+00 0.000000000000E+00 0.000000000000E+00 0.000000000000E+00 0.000000000000E+00 0.000000000000E+00 0.000000000000E+00 0.000000000000E+00 0.000000000000E+00 0.000000000000E+00 0.000000000000E+00 0.000000000000E+00 0.000000000000E+00 0.000000000000E+00 0.000000000000E+00 0.000000000000E+00 0.000000000000E+00 0.000000000000E+00 0.000000000000E+00 0.000000000000E+00 0.000000000000E+00 0.000000000000E+00 0.000000000000E+00 0.000000000000E+00 0.000000000000E+00 0.000000000000E+00 0.000000000000E+00 0.000000000000E+00 0.000000000000E+00 0.000000000000E+00 0.000000000000E+00 0.000000000000E+00 0.000000000000E+00 0.000000000000E+00 0.000000000000E+00 0.000000000000E+00 0.000000000000E+00 0.000000000000E+00 0.000000000000E+00 0.000000000000E+00 0.000000000000E+00 0.000000000000E+00 0.000000000000E+00 0.000000000000E+00
 3.868090169595E-02 -2.359174270535E-03 0.000000000000E+00 -1.900071010032E-03 -2.959808837044E-03 0.000000000000E+00 -6.753023865377E-02 -2.755431067931E-01 0.000000000000E+00 -1.117906714333E-02 2.185307926289E-02 0.000000000000E+00 -1.459391704630E-02 -1.059648133556E-01 0.000000000000E+00 3.522587290090E-03 -1.894278069438E-02 0.000000000000E+00 1.298241986106E-02 -5.469845178869E-03 0.000000000000E+00 7.623779270517E-03 5.220198312164E-03 0.000000000000E+00 2.345274947270E-01 -3.127129278384E-02 0.000000000000E+00 -4.655785808055E-02 4.115732121489E-02 0.000000000000E+00 1.946923044690E-02 9.815845735181E-03 0.000000000000E+00 -1.502486732993E+03 -5.304388097839E+02 0.000000000000E+00 -3.677602889010E-02 1.656145793835E-02 0.000000000000E+00 -1.280173688507E+03 4.335987248230E+02 0.000000000000E+00 4.909240120269E+01 -1.075043381471E+00 0.000000000000E+00 3.911576886197E+01 4.917829143174E-02 0.000000000000E+00 3.072889085336E+03
 -7.668644732283E-05 -2.450067507521E-03 0.000000000000E+00 6.975524779690E-03 8.237119643881E-03 0.000000000000E+00 1.447817522152E-01 4.393235991539E-02 0.000000000000E+00 2.844574156343E-02 -2.629072251862E-02 0.000000000000E+00 1.641416895169E-02 -6.663920015271E-02 0.000000000000E+00 1.045882416116E-02 -2.145026423673E-02 0.000000000000E+00 -9.054747916322E-03 -1.603975113869E-02 0.000000000000E+00 -1.743543062201E-02 1.806129739237E-02 0.000000000000E+00 -1.213193445421E-01 1.682096922049E-01 0.000000000000E+00 -4.360377627334E-02 -1.311571125449E-03 0.000000000000E+00 -2.834733841313E-02 3.739999077324E-04 0.000000000000E+00 -5.401903906688E+02 -8.694001243981E+02 0.000000000000E+00 -1.238389991863E-02 5.579594907606E-04 0.000000000000E+00 4.184206528832E+02 -7.232380687710E+02 0.000000000000E+00 -8.571094458832E+01 1.850651636608E+00 0.000000000000E+00 7.215443900218E+01 5.035005754135E-02 0.000000000000E+00 9.205564353026E+01 2.540033530414E+03
 0.000000000000E+00 0.000000000000E+00 0.000000000000E+00 0.000000000000E+00 0.000000000000E+00 0.000000000000E+00 0.000000000000E+00 0.000000000000E+00 0.000000000000E+00 0.000000000000E+00 0.000000000000E+00 0.000000000000E+00 0.000000000000E+00 0.000000000000E+00 0.000000000000E+00 0.000000000000E+00 0.000000000000E+00 0.000000000000E+00 0.000000000000E+00 0.000000000000E+00 0.000000000000E+00 0.000000000000E+00 0.000000000000E+00 0.000000000000E+00 0.000000000000E+00 0.000000000000E+00 0.000000000000E+00 0.000000000000E+00 0.000000000000E+00 0.000000000000E+00 0.000000000000E+00 0.000000000000E+00 0.000000000000E+00 0.000000000000E+00 0.000000000000E+00 0.000000000000E+00 0.000000000000E+00 0.000000000000E+00 0.000000000000E+00 0.000000000000E+00 0.000000000000E+00 0.000000000000E+00 0.000000000000E+00 0.000000000000E+00 0.000000000000E+00 0.000000000000E+00 0.000000000000E+00 0.000000000000E+00 0.000000000000E+00 0.000000000000E+00 0.000000000000E+00
 -1.015204210111E-01 -3.263459553380E-02 0.000000000000E+00 -1.229280028467E+03 4.451332247770E+02 0.000000000000E+00 -1.744283582929E-01 -3.962943964900E-01 0.000000000000E+00 -2.133654914962E-02 -1.666478552817E-02 0.000000000000E+00 -1.279697113750E-01 5.524474853752E-02 0.000000000000E+00 4.027095937887E+01 -1.826546597529E-01 0.000000000000E+00 4.242622824433E-02 -2.642409437386E-02 0.000000000000E+00 -1.993182594864E+01 3.551826184312E+01 0.000000000000E+00 5.853086778526E-01 -3.459734832388E-01 0.000000000000E+00 1.386989392201E-02 6.256774545214E-02 0.000000000000E+00 2.480298813431E-02 -3.909514451404E-03 0.000000000000E+00 -1.966448210511E-03 7.694183649966E-03 0.000000000000E+00 -6.928699827758E-02 7.777436038702E-03 0.000000000000E+00 -1.136937114696E+03 -3.907471093885E+02 0.000000000000E+00 -3.727877218747E-03 -9.208910508720E-03 0.000000000000E+00 3.686512431498E+01 6.904269629443E-02 0.000000000000E+00 -1.770073741889E+01 -3.265725103911E+01 0.000000000000E+00 2.731761026552E+03
 2.411138398836E-01 6.302086255569E-03 0.000000000000E+00 4.545808569881E+02 -7.400141061480E+02 0.000000000000E+00 -5.399718639451E-01 -1.082744557376E+00 0.000000000000E+00 -1.521727873276E-01 2.534427846517E-01 0.000000000000E+00 -1.162878471269E-02 -2.237904500011E-01 0.000000000000E+00 6.713829096452E+01 -3.613462974355E-01 0.000000000000E+00 7.956886465554E-02 4.006770081480E-02 0.000000000000E+00 -3.333270670422E+01 5.938842113779E+01 0.000000000000E+00 1.014572461702E+00 -6.616144458587E-01 0.000000000000E+00 -4.817070334927E-02 6.680180586071E-02 0.000000000000E+00 -1.527061766557E-03 2.403211027652E-02 0.000000000000E+00 -6.226900198684E-03 3.145436279090E-02 0.000000000000E+00 -6.924525703796E-02 9.109741462153E-02 0.000000000000E+00 -3.891534743900E+02 -6.703667528641E+02 0.000000000000E+00 7.574481314770E-03 -4.812552953805E-02 0.000000000000E+00 -6.488809491819E+01 -1.154558830607E-01 0.000000000000E+00 3.118585787377E+01 5.758535908155E+01 0.000000000000E+00 -8.639678933016E+00 2.819990736181E+03
 0.000000000000E+00 0.000000000000E+00 0.000000000000E+00 0.000000000000E+00 0.000000000000E+00 0.000000000000E+00 0.000000000000E+00 0.000000000000E+00 0.000000000000E+00 0.000000000000E+00 0.000000000000E+00 0.000000000000E+00 0.000000000000E+00 0.000000000000E+00 0.000000000000E+00 0.000000000000E+00 0.000000000000E+00 0.000000000000E+00 0.000000000000E+00 0.000000000000E+00 0.000000000000E+00 0.000000000000E+00 0.000000000000E+00 0.000000000000E+00 0.000000000000E+00 0.000000000000E+00 0.000000000000E+00 0.000000000000E+00 0.000000000000E+00 0.000000000000E+00 0.000000000000E+00 0.000000000000E+00 0.000000000000E+00 0.000000000000E+00 0.000000000000E+00 0.000000000000E+00 0.000000000000E+00 0.000000000000E+00 0.000000000000E+00 0.000000000000E+00 0.000000000000E+00 0.000000000000E+00 0.000000000000E+00 0.000000000000E+00 0.000000000000E+00 0.000000000000E+00 0.000000000000E+00 0.000000000000E+00 0.000000000000E+00 0.000000000000E+00 0.000000000000E+00 0.000000000000E+00 0.000000000000E+00 0.000000000000E+00