#BIOSYM hessian 1
@Type: Hessian Update
@Units
 distance: 	A
 energy: 	Kcal/Mol
#header
@natom 71

#label
C1      C2      C3      C4      C5      C6      C7      C8      C9      C10     C11     C12     C13     C14     C15     C16     C17     C18     C19     C20     C21     C22     C23     C24     C25     C26     C27     C28     C29     C30     C31     C32     C33     C34     C35     C36     C37     C38     C39     C40     C41     C42     C43     C44     C45     C46     C47     C48     H49     H50     H51     H52     H53     H54     H55     H56     H57     H58     H59     H60     H61     H62     H63     H64     O65     H66     C67     O68     O69     H70     H71

#element
C  C  C  C  C  C  C  C  C  C  C  C  C  C  C  C  C  C  C  C  C  C  C  C  C  C  C  C  C  C  C  C  C  C  C  C  C  C  C  C  C  C  C  C  C  C  C  C  H  H  H  H  H  H  H  H  H  H  H  H  H  H  H  H  O  H  C  O  O  H  H 

#matrix
213
 2.794669127954E+03
 -2.890387439808E+01 2.818306639616E+03
 1.951001114144E+01 -1.212165338924E+01 1.931440595786E+02
 4.188592770943E+01 6.670085734930E+01 2.351809970211E-01 2.786001805938E+03
 2.669266720470E+00 8.627489627065E-01 1.325389159880E-01 -3.145323808526E+01 2.743910267844E+03
 1.730558779811E-01 6.579921551546E-01 8.685558222608E+00 2.130624187704E+01 -4.778277673034E+00 1.888044961022E+02
 -3.688184013171E+01 2.568002089648E+01 -2.214008091251E-01 2.393302476062E+00 5.238719839756E+00 -7.067344576982E-02 2.790027735882E+03
 -5.758566269091E+01 4.685308711949E+01 -5.867495134101E-01 5.426732552888E+00 7.656273203372E+00 -5.641639013279E-01 -7.495630751283E+00 2.698420061378E+03
 -1.249398975973E-01 6.829993011090E-02 8.955671902839E+00 -5.849110663353E-02 4.299430179438E-02 7.484356975707E-02 1.387640400353E+01 -1.120906322397E+01 1.867874162395E+02
 8.391969901139E+00 -8.194843650073E+01 1.647198577615E-01 -1.368968822378E+01 4.329077520390E+01 -6.892084400015E-01 -7.390084096291E+00 6.931307993491E-01 -6.254766088276E-02 2.717352133948E+03
 2.234422350084E+01 1.180862167576E+01 2.514891641241E-01 -3.732063591707E+01 5.003874109946E+01 2.141769592236E-01 3.706817753129E+01 5.454610337330E+01 1.469961404622E-01 5.840605448784E+01 2.764827137838E+03
 -8.650765080840E-02 -5.302523211201E-01 8.872840781394E+00 -1.520908067668E-01 1.893206945427E-01 8.175825867364E+00 -2.927057248489E-01 -1.234660001985E-02 9.515937636117E+00 1.391153861794E+01 -6.486032441961E+00 1.931908869835E+02
 -1.989585488684E+01 -8.349706275672E+00 -3.042674826922E-01 1.690290648421E+00 6.545435883589E+00 -4.502930601222E-01 1.749165488735E+01 -1.339203177243E+02 4.586364034922E-01 -7.765096784144E+01 8.235872302922E+01 -5.113360214767E-01 2.513767095294E+03
 -1.696177682142E+01 -7.483917246656E+00 -1.058819213633E-01 9.575259505901E-01 5.390395925360E+00 -1.537333136438E-01 -3.023143329230E+01 -3.969789989907E+01 8.232906270580E-02 -8.217767521872E+01 9.797810310035E+01 -6.999597749910E-01 -1.786880160166E+02 2.982905181956E+03
 -2.324021466692E-02 1.045942155566E-01 2.257543841034E-01 2.942936030726E-02 2.458682694129E-01 4.536176491597E-01 5.198266874085E-01 -7.068745076158E-01 1.232113364974E+01 -2.247309579005E-01 3.795843302170E-01 1.064713329398E+01 1.094117626362E+01 -9.505230550230E+00 1.482093634807E+02
 -1.230072567656E+03 4.549557002952E+02 -1.104588693844E+01 -4.586475792886E+02 -1.591567532456E+01 -3.143724309356E+00 3.932972101476E+00 4.092342803323E+00 1.523532718726E-02 5.300566222942E+00 -3.546093168716E+00 1.106051660110E-01 4.306541377716E+00 4.131317031169E+00 6.943309868860E-02 2.800359247749E+03
 4.492892252869E+02 -7.493492441257E+02 5.837295881252E+00 -1.336309920058E+01 -1.414912855830E+03 2.611575386822E+00 5.971600935417E-01 9.971433272234E-01 2.090920444362E-02 1.422465406629E+00 -1.004102283618E+00 3.630388556785E-02 1.408324049229E+00 9.683240270850E-01 -8.376290869766E-02 -1.254857836958E+01 2.757553168350E+03
 -1.094068385448E+01 5.884879243350E+00 -8.329301203258E+01 -3.408469902142E+00 2.795175950344E+00 -7.954382010526E+01 6.130758934867E-02 -1.030111451851E-01 4.717041065554E+00 -3.303525343227E-02 5.228590224441E-02 -8.888212214214E+00 6.904242750693E-02 1.341351735309E-01 9.926966030957E-02 2.536488453202E+01 -5.319744057687E+00 1.903980414947E+02
 -1.192372097572E+03 -4.037592112048E+02 -6.029837843127E+00 -4.623300959533E+00 -5.080672985387E+00 3.216395254309E-01 -1.202930306854E+03 4.845481224842E+02 -7.941505546622E+00 -4.213844114214E+02 -4.662412891833E+01 -1.761542243510E+00 3.878234098165E+01 3.302490879984E+01 4.905793503431E-02 -2.292101052923E+01 -3.350483475593E+01 2.098830806946E-02 2.771237114184E+03
 -4.081697502376E+02 -6.943150052281E+02 -3.956404742965E-01 -1.167742222533E+00 -1.621039876959E+00 1.620012704717E-01 4.582112725802E+02 -7.216190787475E+02 4.872230302325E+00 4.662599669303E+00 -1.478926310609E+03 3.803887601988E+00 1.181005178423E+01 8.687688823291E+00 1.513933988411E-01 3.441676230594E+01 5.894243532093E+01 1.378280277244E-01 -3.000391342104E+01 2.774860050937E+03
 -6.144939572169E+00 -4.614740993905E-01 -8.126373980965E+01 7.865175063900E-02 9.095890678736E-03 -8.754451400093E+00 -7.640503901985E+00 4.806661344080E+00 -8.306444830815E+01 -2.012577556665E+00 3.798506192584E+00 -8.252397938642E+01 8.862658233082E-02 1.149190971818E-01 -1.023533402840E+01 -3.674198549486E-01 -4.551083433956E-01 8.716843892031E+00 1.588298392934E+01 -7.667871677931E+00 1.921814156849E+02
 1.348545566514E+00 4.692373105831E-01 6.267781077276E-02 -1.192744531896E+03 -4.161154076088E+02 -7.863269506430E+00 3.055456072013E+00 2.271485804089E+00 -3.445968929836E-02 -1.188135601269E+03 4.420928120360E+02 -7.655892276910E+00 7.475354487985E-03 1.615767980201E+00 -9.855501651105E-02 3.537362499816E+01 -6.267088896108E-01 2.215682768172E-01 3.800078372301E+01 -2.331420573246E-01 9.325668828979E-02 2.728387438013E+03
 -7.620940634886E+00 -3.681215068078E+00 -1.696875959291E-01 -4.169711371570E+02 -6.906880906722E+02 -2.454207253550E+00 -1.300836688205E+01 -1.808701632986E+01 -2.531463163433E-02 4.245911282977E+02 -7.244923830571E+02 3.747748089068E+00 -1.408850772810E+01 -1.227737832325E+01 -1.422049318879E-01 -6.323147363479E+01 1.175645561596E+00 -5.566253259923E-01 8.063389958429E+01 3.230506530204E+00 3.926718733364E-01 -8.350607420363E+00 2.740688583384E+03
 3.265019991333E-02 -1.875352983487E-02 -8.953421623690E+00 -8.014315751603E+00 -2.314500989778E+00 -7.947152559142E+01 -7.514596641674E-02 -2.256881806263E-02 4.663742125370E+00 -7.693299806339E+00 3.830509624810E+00 -8.134703260241E+01 -1.477227491431E-01 -1.204364838187E-01 4.611743781898E+00 4.115076413148E-01 -1.645525358155E-02 8.752464895311E+00 -4.611572404409E-02 6.018507476662E-03 9.054118057053E+00 1.771709954195E+01 -2.501198041651E+00 1.860942075571E+02
 2.353577338630E+01 1.250261753732E+01 1.625773236494E-02 -4.628448279677E+00 -6.911577225927E+00 3.502302448643E-01 -1.217257292200E+03 -3.950933741428E+02 -4.267152047241E+00 6.439981946353E+01 -4.949718264196E+01 5.974516519793E-01 -5.142937018605E+02 3.179334146276E+01 -2.453836866606E+00 -4.592884121089E+00 -4.948267501474E-01 2.528927486588E-02 -6.290284988199E+01 -4.889376335927E+01 -2.404812122414E-01 -4.522265216800E+00 1.752980042147E+01 3.138321859092E-02 2.556329774088E+03
 4.375116053605E+01 2.257723717731E+01 3.017761686357E-01 -9.268195448647E+00 -1.324823664578E+01 9.062732847142E-01 -3.903752599599E+02 -6.684788200549E+02 5.310795962744E-01 1.217806333670E+02 -9.617268411356E+01 9.376377116635E-01 6.914713219016E+01 -1.729311012081E+03 6.002039505432E+00 -7.785396958754E+00 -1.353824034912E+00 1.474302233179E-01 -4.181359311038E+01 3.754943156569E+01 -2.188245340454E-01 -5.909536192052E+00 3.232901373146E+01 6.762305745982E-02 9.802602746207E+01 2.832969416275E+03
 -2.503184738977E-02 -4.740263502741E-02 4.624984223048E+00 7.100666311645E-02 -6.292813904006E-02 -1.107526469163E-01 -4.553705168874E+00 4.129880329542E-01 -7.678988123836E+01 6.833768377017E-02 -1.241481487033E-01 -1.029820329483E+01 -2.354268067168E+00 5.674607455096E+00 -6.979015085350E+01 -3.998066002215E-02 -1.163772108980E-02 -2.538295164005E-02 -3.606871545876E-01 -4.207203930665E-01 9.876659492396E+00 6.685984602065E-02 2.770751306956E-02 -5.783944901487E-03 1.157425370864E+01 -9.028953294165E+00 1.507635044167E+02
 6.369305251078E+01 3.154504413479E+01 7.082821232412E-01 -1.385873736442E+01 -1.991188687924E+01 1.665580509920E+00 1.048304253737E+02 1.563693784818E+02 3.470303010739E-01 -1.073528390339E+03 -5.737285810912E+02 -3.950092477737E+00 -1.096522793983E+03 5.448914313164E+02 -5.033314653208E+00 -1.050779657035E+01 -2.809316267812E+00 2.851941690098E-01 -7.498143556316E+01 -3.695449127901E+01 3.862326685273E-02 -2.495654975859E+01 1.281416990782E+01 9.152655349071E-02 -9.180134340741E+01 -2.731449538524E+02 -1.046000410528E-01 2.442333226931E+03
 -5.217103050400E+01 -2.647707392908E+01 -6.099455941848E-01 1.248949147645E+01 1.578206764700E+01 -1.550104814153E+00 -8.589052657694E+01 -1.271100922737E+02 -4.251503587554E-01 -5.770018368459E+02 -6.080796171136E+02 -1.546467943652E+00 3.271970981447E+02 -8.508130138425E+02 2.398356872153E+00 8.347532830143E+00 1.841955874744E+00 -3.424923438060E-01 2.242058585045E+01 3.023207283547E+01 -3.039970279426E-01 4.041682069303E+01 2.161447980094E+01 5.756402226972E-02 1.967828741957E+02 2.206738844929E+02 7.358962560172E-01 3.251436264321E+02 2.669116483570E+03
 6.067077662252E-01 5.568912115034E-02 4.309158114356E+00 3.566731999836E-02 -4.275395168088E-01 4.142299513808E+00 7.039318139491E-01 1.868522650273E+00 -1.045107790079E+01 -3.241533419750E+00 -2.611163943493E+00 -8.538561086379E+01 -5.342719184437E+00 4.203403172750E+00 -7.638199429287E+01 -1.980853097171E-01 -5.516233978652E-02 -4.896704037204E-02 -1.026997801301E+00 -4.696929862258E-01 8.984492126479E+00 -5.949855434367E-03 2.279114381825E-01 9.564430907159E+00 -1.538846407590E+00 -3.161928204662E+00 1.073583071232E+01 7.946759083716E+00 -8.349398340836E-01 1.865417039968E+02
 2.760228671575E-01 2.403187613376E-02 1.638373352304E-02 -2.152142334803E-03 -1.222160938904E-01 4.274729956914E-02 2.907709470309E-01 8.833744124103E-01 -7.744851241268E-03 8.810946419570E-01 -8.531293307435E-01 -5.641711665900E-03 4.390811922446E-01 1.778673668268E-01 4.287662410548E-02 -4.551386366959E-02 -4.734959231578E-02 -6.426722217922E-02 -6.135800747471E-01 -2.686927887812E-01 6.883854197499E-03 1.991110272239E-01 1.618404785370E-01 9.344664402566E-03 -5.819105495890E-01 -1.367844202984E+00 2.177716220185E-03 -2.336670068082E+00 2.041859622238E+00 -1.953293520165E-02 2.818840640319E+03
 -5.497409756821E-04 7.333324377246E-02 -6.837694160911E-03 -6.242424530119E-02 5.401531926763E-02 -6.683808216803E-03 1.128492373229E-01 -1.849475601822E-01 1.413787111761E-02 -7.802259880353E-02 2.381461928117E-01 1.805044319175E-03 1.231042548153E-01 2.437919532607E-01 9.565845896320E-03 1.746124777520E-02 1.527096144165E-02 -2.570976976143E-02 6.987439209456E-02 5.626417119942E-02 3.346106358259E-03 -1.728264561254E-01 3.132413329580E-02 -7.217595843097E-03 -3.772202474436E-02 1.705125973467E-01 -4.624685217777E-03 4.657429875496E-01 -5.476601516879E-01 -1.781821122992E-02 -4.461088605123E+01 2.782370544045E+03
 5.663958606527E-01 3.426179585989E-01 2.373708758906E-01 8.079773588771E-02 1.129826164696E-01 4.790776263366E-01 1.415920581819E+00 9.027639380702E-01 1.269643346340E-01 1.450250567447E+00 -8.177553482856E-01 -2.261923800801E-01 3.024102234109E-01 9.001515162213E-01 6.763069785943E-01 -1.715262031002E-01 -1.125013043717E-01 4.523850311682E+00 -1.194596211751E+00 -5.516022731281E-03 1.929194157134E-01 -1.540797108410E-01 2.179952324537E-01 -3.400996610149E-02 -1.581103054020E+00 -2.114514845560E+00 -1.697782472132E-01 -1.725096573691E+00 1.333144605408E+00 -5.879538124710E-01 5.336453968969E+01 -1.951304311886E+01 1.927424411798E+02
 1.228070156338E-01 -8.102685580684E-03 7.696590275127E-04 -3.859723149362E-02 -1.240475639084E-01 -2.022686608987E-02 2.560550460596E-02 6.087419908454E-01 -1.668833647564E-02 4.738394551106E-01 -6.279576790808E-01 6.022430526498E-03 2.877219221584E-01 -2.665732464713E-02 -1.407385722705E-02 1.056945504205E-02 -2.604395450261E-02 8.908642663216E-03 -2.845190897295E-01 -2.205461725532E-01 -4.550129771557E-03 2.191365620064E-01 7.336166688366E-02 -4.633433729431E-03 -2.014706681913E-01 -7.883211294910E-01 1.028667316164E-02 -1.661233116268E+00 1.494158039114E+00 -5.314171021500E-03 4.704576171251E+01 7.902762736310E+01 1.479866444202E+00 2.740240915925E+03
 1.296256030236E+00 5.867426310010E-01 -2.529262515202E-02 -1.712599932922E-01 -4.382697100055E-01 -3.334905647843E-02 2.150546783090E+00 3.159161408407E+00 -1.122883961615E-02 3.624829142671E+00 -2.907549015332E+00 6.195601046171E-02 2.434871238438E+00 2.019227360322E+00 -9.042441143344E-02 -2.761153695036E-01 -4.755468238479E-02 -1.796678091921E-02 -2.404207645200E+00 -7.144350806510E-01 -3.415412068552E-02 -1.119598404728E-01 9.676726903835E-01 1.966892866411E-03 -3.016461941774E+00 -5.625131003746E+00 2.623060571301E-02 -8.214043558473E+00 6.835828155407E+00 -1.303828692754E-02 -1.192149891460E+00 -1.984457112358E+00 -4.309110312553E-01 2.580435348249E+02 2.957792254824E+03
 -5.488929671455E-01 -2.961684741628E-01 1.003736367205E-01 8.731032084720E-02 1.831529385745E-01 1.621442357091E-01 -1.063737187292E+00 -1.088782557203E+00 2.793465022035E-02 -1.395231759005E+00 9.673332780031E-01 -1.100168881134E-01 -1.107631614725E+00 -1.112942291413E+00 2.888391907968E-01 1.551629874703E-01 -7.882424473505E-02 3.339210530369E-02 8.997093931772E-01 1.178820224856E-01 8.166479279654E-02 3.294492553703E-01 -4.922474166816E-01 -8.259591312715E-03 1.362012518341E+00 2.219580177372E+00 -5.252854386543E-02 2.851706795542E+00 -2.329748307634E+00 -1.681594898970E-01 8.131680501461E-01 2.232707990040E+00 1.213725032208E+01 7.439204447295E+01 1.116989601992E+01 1.500447934236E+02
 -2.072851505750E+01 -3.433135963048E+01 -2.789490874479E-01 3.748844440781E+01 -3.439092984150E-01 1.451568184481E-01 -1.192257805082E+00 -1.124797585282E+00 -3.257987467462E-02 -1.367258323460E+00 1.034722199340E+00 8.476329208883E-03 -1.685665082131E+00 -1.509910518162E+00 -6.043815461058E-02 -1.228764298060E+03 -4.249112427022E+02 -1.158279613608E+01 6.008164488555E-01 2.675044156969E-01 -6.077313748748E-02 3.828601916078E-01 -4.630749379225E-01 -4.786198717829E-02 1.092128560507E+00 1.983378536832E+00 4.115217663795E-02 2.938652341942E+00 -2.120559939295E+00 1.403062750435E-01 -1.906072975821E+01 3.378374725634E+01 -4.173233838446E-01 1.681961649936E-02 9.531550862187E-02 -5.106986988836E-02 2.772260171080E+03
 3.465978267453E+01 5.967059598747E+01 3.211555442909E-01 -6.649327242830E+01 1.332274710015E+00 -5.782637507910E-01 -1.951300280485E+00 -3.210034437027E+00 4.732904340753E-02 -3.663767579205E+00 3.005103166083E+00 -1.000719730894E-01 -1.722028881292E+00 -1.390179549658E+00 2.199985411329E-01 -4.297022385526E+02 -7.100989883358E+02 -2.648893301794E+00 2.626524519967E+00 6.469931843198E-01 6.989524024569E-02 -1.017481135668E-01 -8.889442588052E-01 -1.527130787071E-02 3.015293270912E+00 5.704522505397E+00 -6.350602356627E-02 8.176109072435E+00 -7.188834372105E+00 -1.496202041583E-01 -3.221081700903E+01 5.704889708573E+01 -2.129178671314E-01 -4.918905552469E-03 1.007435848791E-01 6.257092949794E-02 9.760980767678E+00 2.789049716890E+03
 -3.755191194105E-01 -3.551037448580E-01 9.651746416696E+00 4.586473973030E-01 1.294120284073E-01 9.218964880785E+00 3.007621635308E-02 -1.965549923301E-01 4.048745683451E-02 -1.264795713466E-01 1.866679601790E-01 -8.679912015030E-02 -2.263887656317E-01 -5.956259743815E-02 2.469731921477E-01 -1.146503439788E+01 -2.728955188185E+00 -8.188035520239E+01 1.661066467200E-02 7.661579385435E-02 4.618881141152E+00 -3.486909561208E-02 -7.777776935689E-02 4.333702605062E+00 7.780104180874E-02 2.937591835645E-01 -5.834280770545E-02 6.715324580256E-01 -6.221007305036E-01 -1.926554930698E-01 -4.347742784939E-01 5.081610066052E-01 8.696165967376E+00 1.074359026068E-02 -1.797443126147E-02 9.484769345544E-02 3.205378330738E+01 -1.275365507241E+01 1.904106744934E+02
 -1.268744759131E+00 -8.268683970097E-01 5.179222022426E-02 -1.841519993780E+01 -3.110671302462E+01 -2.206276110941E-01 -2.538822086971E+00 -2.471634373078E+00 -1.166214880020E-02 -3.262110345926E+00 2.130599893063E+00 -7.823598924961E-02 -2.610836239295E+00 -2.694133259526E+00 1.441619131170E-01 2.691806685917E-01 -8.124071075545E-03 1.777645397591E-01 2.080289043794E+00 3.788085903891E-01 4.762077604220E-02 7.188772401635E-01 -1.040875460839E+00 -3.501700354864E-02 3.075503805358E+00 4.950142184663E+00 -1.751642254070E-02 6.326478864837E+00 -4.886197415612E+00 2.104909290797E-03 3.837916795118E+01 -6.800446245487E+01 7.704352475020E-01 -2.330576464811E+01 4.070671199794E+01 -9.626462967414E-02 3.983453780543E+01 6.696346657186E+01 6.437036825104E-01 2.810018190209E+03
 -3.153541888475E-01 -2.216881359523E-01 -9.273596548340E-03 3.354516574961E+01 5.625345450949E+01 3.544391769126E-01 -6.219499052645E-01 -5.878415800733E-01 -1.769788813827E-02 -7.586019121127E-01 5.465006208090E-01 2.110460542810E-03 -6.809494688121E-01 -6.516924296927E-01 -4.054754277604E-02 1.425001689687E-01 2.524537596899E-02 -2.546639944942E-02 4.578364328959E-01 1.377431786873E-01 -1.559283470273E-02 1.431106053342E-01 -2.325236153270E-01 -2.444662003577E-03 6.481628213020E-01 1.113236612991E+00 2.248068637594E-02 1.487521245361E+00 -1.203302195119E+00 8.721745814340E-02 -2.326580495883E-01 4.723447946892E-01 1.412966409736E-02 -4.231553478974E+01 7.373592050434E+01 -1.519392261272E-01 -2.503310161734E-01 -5.234227191334E-01 -7.149701720446E-02 -6.441513579570E+01 2.765948306763E+03
 -1.192766796184E-01 -4.761595507047E-02 -6.674692315601E-02 -2.689805929778E-01 -1.742113522162E-01 7.901148167094E+00 -1.746648827700E-01 1.245196913304E-01 -3.481668550667E-02 2.023815132854E-02 2.749415537001E-02 6.680000308609E-02 4.953226593688E-02 -3.021289577944E-02 -1.952736847169E-01 1.908270038316E-01 3.581849276704E-02 -8.781175070321E+00 2.336322938860E-02 -1.037953311016E-01 -5.361297423911E-02 -1.364979324215E-01 -3.886103507461E-02 4.223932255029E+00 6.181940598912E-02 -1.299910754131E-01 4.937323254646E-02 -3.466816957463E-01 2.534257423380E-01 1.520287568681E-01 3.614526412139E-01 -8.590900637218E-01 9.989881719562E+00 -1.118599007218E+00 1.231595061769E+00 1.289485002757E+01 5.580155273634E-01 8.791839069599E-01 8.364461396072E+00 3.195088000260E+01 3.181417998310E+00 1.872198200914E+02
 2.865131033294E+00 1.530792288482E+00 -1.117722468324E-01 -2.840068868289E-01 -8.070211797995E-01 -1.507607282335E-01 5.349125874637E+00 6.117562378216E+00 -3.967494284375E-03 7.607144434063E+00 -5.500802402198E+00 1.798503478877E-01 5.212698807321E+00 5.124307441679E+00 -3.474461462623E-01 -7.606890394605E-01 -1.670070550174E-02 -5.312441699416E-02 -5.078732314230E+00 -1.033754698137E+00 -1.072849866168E-01 -1.003730065880E+00 2.230620437790E+00 -5.267821812778E-03 -6.933909626765E+00 -1.176555079401E+01 5.205500787535E-02 -1.558663152031E+01 1.275377710051E+01 3.525196047137E-02 -1.280254604671E+03 4.491022423060E+02 -2.927922155012E+01 -5.128015691590E+02 -2.381395131639E+01 -1.490440845533E+01 2.132418664102E-01 2.606980537504E-01 -2.119574739179E-01 5.081971982379E-01 1.706346781240E-01 4.052082815147E-01 2.562174578823E+03
 7.825363474117E-01 4.196843845889E-01 3.863500330615E-02 -3.121854039878E-03 -1.913612941128E-01 8.131287548138E-02 1.559495030146E+00 1.653351270625E+00 2.260304387871E-02 2.098782754300E+00 -1.516864723717E+00 -2.204520587431E-02 1.144495190805E+00 1.297183429000E+00 9.095217636791E-02 -2.217007358046E-01 -3.334786328837E-02 2.795381298126E-02 -1.460502409425E+00 -2.125132288391E-01 2.072010740059E-02 -2.358840835465E-01 5.427512006308E-01 5.338999704825E-04 -1.969755581806E+00 -3.243026596344E+00 -3.040946496922E-02 -3.992735629756E+00 3.316519840021E+00 -1.098179988538E-01 4.781541114347E+02 -7.477691159393E+02 9.411247909540E+00 -5.088227236813E+01 -1.661491777373E+03 -7.184917777340E+00 7.400691378877E-02 1.267282275943E-01 9.654856920043E-02 2.121761602281E-01 4.126340998763E-03 -3.551787050272E-02 -1.401836698764E+02 2.770743393678E+03
 3.336816928553E-01 4.108538208122E-01 -1.678327706405E-01 -3.848254856740E-01 -1.485186621480E-01 -2.908111055872E-01 6.723842795185E-01 4.442913915247E-01 -6.710754057372E-02 6.844857875691E-01 -3.064665473060E-01 1.700238429661E-01 1.582792184170E+00 1.376146258015E+00 -4.684440534151E-01 -6.200325430538E-02 2.267172970338E-01 -5.159863306475E-02 -4.101960751900E-02 -3.349670434522E-02 -1.485882341403E-01 -5.966476022668E-01 4.505283938750E-01 5.442137288026E-02 -5.244480253480E-01 -8.774448470667E-01 9.729534034112E-02 -1.529947641233E+00 7.980876811852E-01 4.113881129190E-01 -3.028962421114E+01 9.400701342428E+00 -8.814015126940E+01 -1.568831439850E+01 -9.826358265196E+00 -7.864986711389E+01 -7.068960676875E-02 6.712452223105E-03 4.450246887554E+00 1.099588081937E-01 1.091318428537E-01 -1.087445193051E+01 9.522160239413E+01 2.096789512279E+01 2.398231783183E+02
 -1.072836493171E+00 -4.128210803769E-01 -6.866235349345E-02 1.173937354578E-01 4.421934986454E-01 6.111562695386E-02 -1.711247009620E+00 -2.752816612623E+00 1.152693301259E-02 -3.105797376511E+00 2.566386045775E+00 -2.682742717284E-02 -1.833621350627E+00 -1.471549024162E+00 1.030944566700E-02 -1.911664342745E+01 3.446955450512E+01 -5.634561425992E-01 2.093735109306E+00 5.817563742644E-01 9.632298623539E-03 -4.427260747673E-02 -7.513863299018E-01 -7.267323309058E-03 2.502003876102E+00 4.801782867845E+00 -9.752273924802E-03 7.093772908432E+00 -5.937765462317E+00 4.027073390114E-02 -1.204407865614E+03 -4.160808777718E+02 -1.824932685894E+01 -1.285273264079E-02 1.597120269216E-01 3.166615724541E-02 -1.187720519409E+03 4.284948810492E+02 -1.700709879035E+01 -4.700564175963E+02 -1.726671845616E+01 -5.394694821570E+00 -2.012335487441E+01 -3.423161943034E+01 -3.551936883185E-01 2.748136482945E+03
 6.908219750485E-01 3.647871265421E-01 -1.841018040108E-02 6.026321768410E-02 -3.034081035869E-01 1.321291713149E-02 1.212170875435E+00 1.627173501265E+00 -2.320156473901E-02 1.893736567708E+00 -1.537323451780E+00 6.273391242584E-02 1.265698128002E+00 1.105568125150E+00 -1.482953954137E-01 -3.288691398079E+01 5.805199376317E+01 -6.413704887698E-01 -1.208439508973E+00 -2.982952117452E-01 -4.050682107537E-02 -1.479109251637E-01 5.397056057115E-01 9.546604645799E-03 -1.571871547669E+00 -2.924897737995E+00 2.410417374293E-02 -4.138240397968E+00 3.529097257276E+00 6.654252264817E-02 -4.224105564032E+02 -7.021703658722E+02 -5.251557377189E+00 3.307831888073E-02 -4.021906668397E-02 -2.192279966953E-01 4.296163158672E+02 -7.174265108481E+02 7.847492165192E+00 -6.277603724585E+00 -1.484241049979E+03 -1.987271158002E+00 3.596358807835E+01 6.061935300398E+01 4.450992983117E-01 -4.656933750992E+00 2.785710114889E+03
 8.464954522175E-02 1.155573817498E-01 4.557799936205E+00 5.103502353478E-02 -1.285455379333E-01 -8.793245855820E+00 2.546353634143E-01 1.409814148671E-01 9.802603939962E-04 2.408963422016E-01 -1.223675959324E-01 1.207923396366E-02 2.924007090545E-01 3.267171069060E-01 -2.640832214458E-02 -2.925698979741E-01 2.202277297034E-01 8.868766593221E+00 -1.301216926776E-01 9.850035121245E-03 -1.280581138195E-02 -1.215037036492E-01 1.323612719453E-01 1.542310480269E-02 -2.316440898617E-01 -3.190091257771E-01 4.479170266799E-04 -3.467240862515E-01 2.012250424092E-01 3.601362254193E-02 -1.832089383197E+01 -5.057756129941E+00 -8.092282660105E+01 2.656394637082E-01 2.433335929102E-01 -1.075677202970E+01 -1.692730390510E+01 7.813015477063E+00 -8.051723033187E+01 -5.510040206985E+00 -2.051043387849E+00 -8.202130981639E+01 -1.013714311533E+00 -1.015163964303E+00 1.128261718689E+01 3.986399159113E+01 -1.108404412922E-01 1.892255566276E+02
 7.152107794860E-01 3.024029890198E-01 -3.354693272713E-02 -1.398759788897E-02 -2.326152014018E-01 -9.511358852607E-02 1.232150765551E+00 1.646908649648E+00 -5.582756119452E-03 1.962797294830E+00 -1.492874865984E+00 5.175607887363E-02 1.198662398421E+00 1.095772843213E+00 -9.930231081774E-02 -1.962563082785E-01 -3.574256859130E-02 -2.391585038539E-02 -1.381786843742E+00 -3.359919002122E-01 -3.256651330156E-02 -1.166406696687E-01 5.452024758802E-01 8.180109472298E-03 -1.754721855186E+00 -3.085531714046E+00 2.339165390048E-02 -4.234129480444E+00 3.571843876049E+00 3.423048445906E-02 -1.882853149752E-02 -1.241629819572E-02 -8.386591386299E-02 -1.444145331161E+03 -5.069346409903E+02 -3.240462977186E+01 7.083034040991E-02 3.819564903568E-02 -8.823477506440E-02 -1.328108630343E+03 4.570375506490E+02 -1.526819095004E+01 5.036536354382E+01 -1.306669631031E+00 8.156898052979E-01 4.085231502308E+01 -3.144792428279E-01 4.778718506312E-01 3.059994984999E+03
 -1.148657363938E+00 -5.601618988111E-01 6.761750626836E-02 1.651084844695E-01 4.258605953427E-01 1.224687416924E-01 -1.949115299710E+00 -2.743967640007E+00 3.281616711042E-02 -3.170810078337E+00 2.524748951007E+00 -9.840925183576E-02 -2.249006139397E+00 -1.903034171795E+00 2.188048169346E-01 2.740119736916E-01 -6.157676069727E-03 2.314683118470E-02 2.040721409332E+00 5.650206506843E-01 6.690649068235E-02 2.162829389117E-01 -9.017476204978E-01 1.000904128424E-03 2.667479913121E+00 4.933761117260E+00 -5.020005732400E-02 7.150239953383E+00 -5.935785853840E+00 -8.754621470946E-02 1.318338754754E-02 1.713082687421E-02 4.292159863797E-01 -5.080598050443E+02 -8.432384215251E+02 -1.414504477837E+01 -9.566081635392E-02 -6.331255101829E-02 5.036756009697E-02 4.435628539295E+02 -7.543503148812E+02 2.581616011426E+00 -8.792994677318E+01 2.332107485714E+00 -2.072618406910E+00 7.388168495950E+01 -4.775632657470E-01 7.854807196539E-01 4.239527900551E+01 2.548443531229E+03
 -2.301564259991E-01 -2.569845220732E-02 6.194406507500E-02 9.735981874471E-03 1.276236161432E-01 4.926023088542E+00 -3.262707001056E-01 -5.166887419284E-01 2.929973299160E-02 -5.728368662572E-01 5.092254918401E-01 -6.816893978179E-02 -4.039004330089E-01 -2.982598578976E-01 1.864594600734E-01 6.343211692028E-02 -9.281714325811E-02 2.847370840368E-02 3.858668500467E-01 8.072734166939E-02 5.251216325799E-02 5.360798021233E-03 -1.988231417108E-01 -3.045170607609E-03 5.329871668638E-01 9.743715966101E-01 -4.503701284104E-02 1.446785984015E+00 -1.302300170069E+00 -1.305167853286E-01 4.521273844257E-01 -2.515268741712E-02 -1.061248923198E+01 -3.101779634465E+01 -1.323005402498E+01 -7.003079564930E+01 -2.051832339991E-01 7.779604597866E-02 4.821457076715E+00 -1.584026930992E+01 2.640300041458E+00 -7.885443022121E+01 4.174217530082E-01 -2.310064874018E-01 1.421414004420E+01 5.348759590019E-01 1.308395136827E-01 9.385828302884E+00 5.254329007546E+01 2.018227970742E+01 1.528522149923E+02
 2.883359157815E-01 1.413822254487E-01 -3.568545461318E-02 -1.253132855941E+03 4.512656749796E+02 -1.074044559313E+01 6.400687764001E-01 5.224288286850E-01 1.439770093849E-02 8.079812033279E-01 -3.268945054626E-01 -3.017750205919E-02 3.988061722766E-01 6.220767746375E-01 8.806670055746E-03 4.024159577767E+01 -4.458869201453E-01 1.854399814776E-01 -6.715931206870E-01 -1.074636053316E-02 -1.009466012398E-03 -2.006894447016E+01 3.571374660096E+01 -2.221423277985E-01 -9.162169123113E-01 -1.254879092070E+00 5.548357755843E-03 -1.221972965886E+00 8.224657966000E-01 -7.638756906146E-03 1.669850426693E-02 -1.327998068755E-02 -8.063707173010E-02 3.641059537968E-02 -3.809062430865E-02 -1.641730779444E-02 8.266234613292E-02 3.914015586271E-02 4.861455133768E-02 -1.129235650044E+03 -3.786598223608E+02 -1.227196403492E+01 -2.019157232680E-01 -3.791264588362E-02 -6.734018740530E-02 3.567759974003E+01 -3.204259011343E-01 3.423620259281E-01 -1.820389046639E+01 -3.292374358805E+01 -3.740859997440E-01 2.758763730136E+03
 7.680496647319E-01 6.437392293884E-01 -5.541250819412E-02 4.625632875039E+02 -7.483756053074E+02 4.361077101410E+00 1.917007507588E+00 9.143751104876E-01 1.716555929228E-02 1.659911616773E+00 -7.699275826114E-01 8.444353551866E-02 1.535196882335E+00 2.013514872153E+00 -1.725166402893E-01 6.722957433124E+01 -6.998339411593E-01 5.234006159566E-01 -1.058420026106E+00 5.206186783022E-02 -4.003587401446E-02 -3.415725917868E+01 6.007341167865E+01 -2.829100463257E-01 -1.900131463281E+00 -2.460315841937E+00 -9.549763643081E-04 -2.108147740817E+00 1.662138477554E+00 3.521059806100E-02 4.126768376975E-02 -5.325034945007E-02 -3.191130962098E-01 1.069027665481E-01 -1.007041016040E-01 1.566019750752E-01 -6.083748323893E-03 1.134944225319E-01 -3.481080176077E-02 -3.803647545616E+02 -6.622594536485E+02 -5.021470560593E+00 -5.320338807479E-01 -1.817107695134E-01 4.033819243718E-02 -6.397436284920E+01 4.051844110826E-01 -7.196016578230E-01 3.245106689368E+01 5.920180513213E+01 4.753079959319E-01 -2.210141916113E+01 2.847942285902E+03
 -1.674173026735E-01 -2.985621611891E-01 4.407121835817E+00 -1.072182975054E+01 4.058167338131E+00 -8.393099776633E+01 -7.692442459160E-01 3.271167170176E-02 -1.477057066384E-01 -4.488455037201E-01 -1.036368967378E-01 4.865819970425E+00 2.447347479869E-01 -4.188291544459E-01 -8.429859853947E-01 -8.914136556122E-02 1.952751982068E-01 8.313595194122E+00 4.032610515643E-01 -1.075301893677E-01 -2.367804455641E-01 6.692936512286E-02 2.620592104868E-01 9.705128649891E+00 5.540979507120E-01 2.974318276523E-01 2.072400763005E-01 -7.500358622808E-01 8.883238870487E-01 6.664044098574E-01 -2.442176847977E-01 -7.506793064959E-02 3.290679814101E+00 4.124543051713E-02 -1.486996566118E-02 4.936238959841E+00 3.357728512741E-01 -1.875385346145E-01 -9.083162531244E+00 -1.254227061615E+01 -4.489715698613E+00 -8.094391674706E+01 4.634844908632E-01 7.917535478014E-02 6.216337477457E-01 2.934240993128E-01 1.124214093760E-02 8.133750628421E+00 -3.104408362382E-01 -7.042710613927E-01 1.012191808045E+01 2.654577893105E+01 3.075168768787E-01 1.905125501443E+02