#BIOSYM hessian 1
@Type: Hessian Update
@Units
 distance: 	A
 energy: 	Kcal/Mol
#header
@natom 68

#label
C1      C2      C3      C4      C5      C6      C7      C8      C9      C10     C11     C12     C13     C14     C15     C16     C17     C18     C19     C20     C21     C22     C23     H24     C25     C26     C27     C28     C29     C30     C31     C32     C33     C34     C35     C36     C37     C38     C39     C40     C41     C42     C43     C44     C45     C46     C47     C48     C49     H50     H51     H52     H53     H54     H55     H56     H57     H58     H59     H60     H61     H62     H63     H64     H65     H66     O67     H68

#element
C  C  C  C  C  C  C  C  C  C  C  C  C  C  C  C  C  C  C  C  C  C  C  H  C  C  C  C  C  C  C  C  C  C  C  C  C  C  C  C  C  C  C  C  C  C  C  C  C  H  H  H  H  H  H  H  H  H  H  H  H  H  H  H  H  H  O  H 

#matrix
204
 2.811407152778E+03
 -5.523582003971E+00 2.489083615323E+03
 -3.496144113871E+00 -1.884907880382E+01 1.836475816838E+02
 4.186734074167E+01 7.147587224578E+01 -7.865978423730E-01 2.957601476296E+03
 -1.032395900951E+00 -8.291506471440E-01 -6.548822025310E-02 -4.282948535233E+01 2.913417592195E+03
 -1.250530304310E-01 -1.440332341645E-01 9.969097607380E+00 4.174096905298E-01 -3.213834735847E+01 1.983216839009E+02
 -2.332286625986E+01 3.818095275435E+01 -2.467977237680E-01 -4.989254695743E-01 2.196938281635E+00 -1.371871867801E-01 2.742985186361E+03
 -3.107277908367E+01 6.216709359437E+01 -4.265146120921E-01 -2.945179211106E-02 -1.687204340951E+00 2.159910890249E-02 1.120232507359E+01 2.519636772882E+03
 3.517249696318E-01 -7.704312933293E-01 8.431456344549E+00 2.237444342004E-01 -8.843329051132E-03 -2.013166452396E-01 1.212878402193E+00 -1.590692284953E+01 1.689196175130E+02
 3.930104217608E+01 -7.120021458758E+01 5.649392812173E-01 -1.910984993585E+01 3.619591475450E+01 -2.187572773468E-01 4.267825061698E+01 7.295812845654E+01 -1.290367981365E+00 2.874113641901E+03
 -1.645545032882E+00 1.011749265944E+00 1.114228289293E-02 -3.522457202471E+01 6.206932724894E+01 -4.430419440824E-01 5.110613751287E+00 1.961364705098E-01 -3.321633254859E-01 -2.111242465726E+00 2.874324364137E+03
 1.367651655872E-01 6.594043911874E-02 1.005684640361E+01 3.621324493789E-01 -5.324752980922E-01 9.857444678056E+00 -3.258020520085E-01 -1.372103339225E-02 1.000681757485E+01 1.924263528244E+00 -2.600472629572E+01 1.922054278098E+02
 -1.827068271472E+00 -8.718837460891E+00 1.273689573496E-01 1.342088223987E+00 -4.506967677633E+00 5.243564908038E-02 4.904969562836E+01 -8.104522521627E+01 2.841915602507E-01 -2.416890362273E+01 3.064814568631E+01 -2.452708968893E-01 2.961679477040E+03
 -1.243863725009E-01 -8.792832917967E+00 6.147320541849E-01 2.490770923927E-01 2.509364522162E-01 -1.720800294790E-01 9.290266108274E-01 -5.680597797005E+00 4.466156349730E-03 -3.399367165120E+01 6.103685747866E+01 -6.949153379828E-01 -4.601300200203E+01 2.962850385574E+03
 -1.222879671399E-01 1.999726523359E-01 -5.892786708122E-01 -3.681434983228E-02 -1.028006939506E-01 1.210931640942E-01 -9.546209795710E-02 5.045534363512E-01 7.064035108375E+00 4.879024929474E-02 -1.148908613770E+00 7.381940905562E+00 3.498050780973E+00 -2.527991910252E+01 1.598644913661E+02
 -1.236435182657E+03 4.553992834172E+02 -1.619478374970E+00 -5.015994639879E+02 -1.329307503007E+01 8.499235447910E-01 -4.606506558640E-01 1.768619891020E+00 5.441205557516E-02 -2.154556953764E-01 1.661785745863E+00 -2.408246378150E-02 2.872862552824E+00 1.685458457343E+00 1.036125087330E-01 2.985938617011E+03
 4.650652981882E+02 -7.577843012379E+02 5.779650865054E+00 -6.710416739474E+00 -1.514544823318E+03 1.617567739577E+01 -4.653519477393E-01 1.912730537066E+00 1.959064066170E-01 1.368525119252E+00 -6.627906120387E-01 -2.327541146291E-01 2.975513772168E+00 -1.359282079765E+00 8.259327411639E-02 4.076012067141E+01 2.920510455205E+03
 -2.169623417506E+00 5.594956740882E+00 -8.298487536579E+01 3.557789000132E-01 1.597223875402E+01 -8.716397815254E+01 -4.362363018104E-02 -1.004578742266E-01 4.767026402286E+00 -2.746492685776E-02 -8.098443373749E-02 -9.692591615513E+00 2.292370708350E-01 2.236707938585E-01 8.109268279297E-02 -7.612851275936E+00 -2.952553049642E+01 1.991507655427E+02
 -1.263922313226E+03 -4.401969625798E+02 4.609561302750E+00 -1.440073798010E+00 -2.946554614632E-01 1.715356271317E-02 -1.245705164420E+03 4.479933952883E+02 -3.087922221568E+00 -4.921401316899E+02 -7.788275389182E+00 1.642648540574E-01 4.945419140234E+00 4.576167401013E+00 3.088060913264E-01 -1.896197328525E+01 -3.446048899255E+01 1.229498743271E-01 2.890196964903E+03
 -4.568130640808E+02 -7.208936969912E+02 5.967255293717E+00 9.346662138968E-02 -5.055414968506E-01 -2.854729653722E-01 4.643137857561E+02 -7.428224962130E+02 5.426457409137E+00 -6.410071962940E+00 -1.515096188619E+03 1.324646571373E+01 2.490415275271E+00 -1.954584877548E+00 6.326516680658E-02 3.633822978949E+01 6.255938664365E+01 -5.281714044614E-01 1.768910981536E-01 2.855679619226E+03
 5.018342686582E+00 5.819967280814E+00 -8.150843525562E+01 2.231850660071E-02 -3.575006915987E-02 -9.780813538446E+00 -3.151079687796E+00 5.152690994904E+00 -7.923941019952E+01 -2.579742751998E-01 1.288537840284E+01 -8.410981515180E+01 -1.650133608094E-01 1.889228535187E-01 -9.776726926995E+00 -2.504892186624E-01 -3.102276153921E-01 9.348527412509E+00 -1.791725186986E+00 -2.339741102151E+01 1.903830485609E+02
 8.578668191789E-01 -7.540620233736E-01 -1.999428164702E-01 -1.261979793537E+03 -4.517681071054E+02 5.065026095224E+00 -3.809950609241E-01 1.335241507894E+00 1.523166468871E-01 -1.239787541754E+03 4.692719654402E+02 -5.289228214322E+00 2.419818142646E-02 9.945934815973E-01 -7.343480881232E-02 3.869688899377E+01 -3.785129423365E-01 2.488695296362E-03 4.324208154629E+01 -1.465395064054E-01 1.973399504698E-01 2.807338407181E+03
 9.473971332000E-01 2.169678458674E+00 -1.011162856674E-01 -4.402715650129E+02 -7.283857900952E+02 7.823747084911E+00 1.372432547956E+00 1.553526694740E+00 -6.229633493267E-02 4.546416052561E+02 -7.479399802025E+02 7.615118392279E+00 4.889687725052E+00 7.656545488180E+00 -3.707727712817E-02 -7.271610722050E+01 9.311813136240E-01 -2.804185355162E-02 7.009953605913E+01 -1.106083986646E-01 -4.704482811551E-02 1.187770905918E+00 2.481046061716E+03
 -1.420916210333E-01 -1.021805806576E-01 -1.007788590706E+01 5.544325366697E+00 7.740333425844E+00 -8.214100921403E+01 5.815932680884E-01 2.930670378575E-01 5.633412732409E+00 -6.210170955404E+00 6.995029780367E+00 -8.107757381343E+01 -3.764175685500E-01 5.975816232390E-01 4.989075061619E+00 8.399917069474E-01 3.307597115467E-01 1.030323959175E+01 -6.240110662427E-01 6.261268966957E-01 1.126761683397E+01 4.121128543114E-01 -2.877516507644E+01 1.863610142692E+02
 -7.022786243923E-01 -8.165018625531E+00 3.797699205529E-01 1.474393373378E+00 3.892458488564E+00 -2.702199717716E-02 -1.218099946698E+03 -4.509186277795E+02 1.893814045828E+00 2.095120353335E+00 -1.053504621771E+00 -3.994730889920E-02 -5.862021558462E+02 2.757323992888E+01 -9.266753372308E-01 -4.279156406774E+00 -5.202763050412E+00 4.930796109956E-01 -1.535459216170E+01 -3.281631419387E+01 2.521047664703E-01 -1.357023617578E+00 5.248401404103E-01 3.210849115307E-02 2.817999873822E+03
 3.869131347733E-01 6.360593684259E+00 -4.696375786092E-01 -8.574092124895E-02 4.149811313234E+00 3.464521653507E-01 -4.564779568583E+02 -7.567185633386E+02 5.123831846562E+00 -2.758918830682E+00 -1.312613800537E+00 5.312682551602E-02 4.010397956227E+00 -1.484717924075E+03 1.175862074813E+01 -7.497210791113E+00 -5.255061577965E+00 -1.578310645028E-01 3.869663904738E+01 6.416557848843E+01 -4.655485389983E-01 -3.642950182954E+00 -9.453217465114E+00 -3.615384909930E-01 5.040068437577E+01 2.771612597807E+03
 -9.185269002719E-02 -2.476318408640E-01 5.170345075245E+00 1.429431831466E-01 -8.726515576126E-02 -1.877602721078E-01 3.165959998837E+00 4.779647285976E+00 -6.608639274324E+01 -2.088413197364E-01 -9.432043455808E-02 -9.739329071884E+00 -1.867644148471E+00 1.369459896352E+01 -6.478773792152E+01 1.140654022639E-01 1.632235960493E-01 -2.745674464053E-02 -4.275503901438E-01 -9.647906834662E-02 6.644625997018E+00 9.072856546743E-02 -2.852063501593E-02 8.280206544511E-01 2.871545057473E+00 -2.245807839808E+01 1.382787185800E+02
 -2.036655316584E-01 1.706299701292E+00 6.606809456735E-02 -1.452768677448E+00 3.825248641634E-01 -9.783449464204E-02 1.607724421206E+00 -9.700198447299E-01 6.794919594483E-01 -1.248007484306E+03 -4.599673933700E+02 3.455167505266E+00 -1.212736553997E+03 4.497262435971E+02 -4.944584008935E+00 5.242830656252E-02 -1.231757092537E+00 -8.408782653955E-02 3.910402113893E+01 -3.292733113844E+00 2.645222532711E-01 -2.638011856163E+01 -3.377480949935E+01 8.417506942126E-01 4.289161753071E+01 -4.445575249525E+00 5.345870081691E-01 2.796660726492E+03
 1.083853129923E+00 3.273580530665E+00 -3.011071720137E-02 9.217838657816E-02 1.059675995920E-01 1.055958580430E-01 -8.338745087291E-01 -6.333792578725E+00 3.995419020535E-01 -4.473630844053E+02 -7.327586795480E+02 6.163434219705E+00 4.762063087767E+02 -8.012627448642E+02 7.693571558758E+00 1.915808879723E-01 1.003873156067E+00 -2.648791364171E-01 -7.570985605179E+01 -4.260204714570E-01 -3.983499637792E-03 3.452790566481E+01 6.142988772593E+01 -5.992373490039E-01 8.487780349182E+01 4.016199549802E+00 -9.707251644264E-02 -6.937438436425E+00 2.518994779607E+03
 -3.500801157400E-02 1.685656277552E-01 5.094199828155E+00 -4.309809159248E-02 2.985837526788E-02 4.788241793860E+00 -5.405126024373E-02 -3.889042903245E-01 -1.016294097994E+01 4.164247384794E+00 6.414352785337E+00 -8.149157776301E+01 -5.146940928251E+00 7.220394705210E+00 -7.700529884947E+01 -1.972798273884E-02 -1.322002849718E-02 2.189415450967E-03 4.185500208298E-01 1.588238269348E-02 1.078725711787E+01 -5.591301706003E-01 -7.099746865262E-01 5.823078378819E+00 -3.458051419082E-01 3.123991000844E-01 1.053035022777E+01 1.470676959014E+00 -2.442549799566E+01 1.766419884339E+02
 -2.213374489949E+00 1.945746343188E+00 -1.406601619474E-01 1.624141139894E+00 -8.337621509737E-02 7.254820754490E-02 5.443295617468E+00 9.262214934680E+00 -6.574748429972E-01 -3.939337734258E+00 -2.928203343988E+00 1.499848947515E-01 3.939222741147E+00 9.872687085037E+00 -4.771436514319E-01 -1.104490149354E+00 -4.079303083979E-02 5.003593544693E-02 5.398430102822E-01 3.032731853940E+00 -2.525699253431E-01 -8.494254279544E-01 -4.644737023669E+00 -6.928223222405E-01 -1.189781542694E+01 -2.770374903602E+01 -1.043673695730E-01 3.682609929338E+00 1.404200709498E+00 2.983324973799E-01 2.786158055498E+03
 1.007626463345E+00 -1.891053824745E+00 9.050912827690E-02 -8.121527759852E-01 1.828169192759E-01 -2.022979286520E-01 -4.547611080717E+00 -2.750388147294E+00 -1.778543610226E-01 2.352751981656E+00 1.730614061057E+00 -2.227648068167E-01 -2.262504397180E+00 -7.332059987481E+00 3.790107543899E-01 2.664124722211E-01 -4.091255150426E-01 2.432993307396E-01 2.266527762521E-01 -1.422325576951E+00 2.729975122408E-01 4.588763539358E-01 2.971513779591E+00 5.694456660130E-01 3.907274908479E-01 1.028649629182E+01 -1.321404904289E-01 -2.838574498203E+00 -1.108537369778E-01 6.107837631733E-02 -5.241385860389E-01 2.476086885838E+03
 -2.763569348898E-01 4.464715021554E-01 -2.777163654641E-01 -1.420124308851E-01 -5.651550061592E-01 -3.493654729771E-01 -1.079218207100E-01 6.089387477981E-02 1.430563704146E-01 -2.605283916650E-02 -3.749063621993E-01 -2.199453643453E-01 9.241130779072E-01 3.611254746456E-01 -7.127460861329E-01 2.144059541089E-02 4.552998570627E-01 5.139805775368E+00 -7.173406632700E-02 1.477718889966E-01 2.187899687692E-01 -2.218832627139E-01 -4.752725904919E-01 7.380078696443E-03 8.732522279241E-01 4.904853573117E-02 9.660971492892E-01 -3.354701078434E-02 -5.583429860088E-01 6.909120990111E-01 -1.682402964338E+01 -2.889073759110E+01 1.824883745755E+02
 4.202987191198E+00 1.441006870487E+01 3.081579060886E-01 -5.171367834312E+00 2.862378488828E+00 -1.415713113383E-01 -1.441297992041E+01 -3.546668012986E+00 2.032995821600E+00 4.842007340898E+00 7.236051414331E+00 -2.005164029363E-01 1.915869901879E+01 1.615874614239E+01 3.264441070866E-02 -7.320654839594E-01 -1.145627859120E+00 -6.869149099990E-01 -6.255103751911E+00 -6.684938521163E+00 4.437866494680E-01 2.290686636492E+00 -4.851412370715E+00 1.113776388480E+00 3.561557875710E+01 1.758972054052E+00 1.500474169006E+00 -1.249395211467E+01 -1.636343928065E+01 -5.886540865426E-01 5.264745783141E+01 7.347629194303E+01 -4.146901731640E+00 3.163088222869E+03
 1.935378562655E+00 -7.038847708588E+00 5.362300002099E-01 -2.231675882424E+00 -4.349093621250E+00 -3.707810306090E-01 -7.475461643675E+00 -4.654079769102E+01 1.916416822789E+00 6.719532997243E+00 3.373581795762E+00 -3.079037695880E-01 -3.252074037667E+01 -3.821929316466E+01 1.115405909279E+00 8.088669221754E+00 4.479603405238E+00 -5.069272144221E-01 -3.299510135783E+00 -6.553641496179E+00 5.561170364241E-01 4.056779711983E+00 1.604646695321E+01 1.230301265483E+00 6.521490378140E+01 1.444829398442E+02 -6.849864486186E-02 7.292724829160E-01 -3.635228141752E+00 -8.404261350640E-01 4.957639470299E+01 -2.026674916783E+01 -1.623384644745E+00 -1.229864180099E+02 2.972795763495E+03
 1.046765163825E-01 -2.864642244158E-01 -1.197847889598E-01 3.047961898983E-01 4.161759229774E-01 -3.464855909233E-02 7.060222322203E-01 9.680880027173E-01 3.794916325755E-01 -2.972463003608E-01 -5.403572817100E-02 -7.643117813126E-02 -6.194903634934E-01 6.610618684866E-01 5.350525199504E-02 -7.602490472624E-02 -2.891940754339E-01 -4.272971371275E-03 1.038293282191E-01 3.182093027353E-01 2.302637676750E-01 1.110916061914E-01 4.481736322959E-02 4.868249658720E-01 -2.240127351359E+00 -3.283893213141E+00 4.212423553520E-01 3.486085677307E-01 8.591947812959E-01 -2.607704959117E-02 -1.632022147274E+00 -4.465923108000E-01 8.915050398100E+00 -1.071024380847E+01 -5.019270917722E+01 1.846954887908E+02
 -2.690919082120E+01 -3.413347310060E+01 4.967463070702E-01 4.284705143308E+01 -2.729912343347E-01 -6.945450889131E-03 -1.768845804239E+00 6.851748957065E-02 -4.415595533155E-02 -2.122325794338E-01 -8.701966642126E-01 -1.976180690980E-02 -6.029447013313E-02 4.171950531645E-01 -5.788449660540E-02 -1.358247614595E+03 -4.992206214842E+02 9.074443041623E+00 -7.800352742287E-01 -2.155555037671E-01 -1.387704932588E-02 2.831915667370E-02 -1.691765118824E-01 -9.323494903186E-02 3.116747628820E+00 3.642432069492E+00 -8.348226889447E-02 -8.732707967245E-01 -9.116480098896E-01 -4.162720901148E-02 -2.444774423592E+01 3.669405075328E+01 -1.134138370246E-01 1.285621791653E+00 -1.718041951371E+00 1.624608055565E-02 2.905662283989E+03
 3.769774731757E+01 6.276572130516E+01 -8.488148090082E-01 -7.595909008366E+01 9.960503788810E-01 2.957613750554E-01 4.454819968965E-01 -3.689006253298E+00 -2.931388338888E-01 8.801082149973E-02 6.291638319130E-02 -6.117567566930E-02 -1.103872090657E+01 -9.866210971328E+00 2.042679252607E-01 -4.823982995249E+02 -7.760420477799E+02 8.839210056079E+00 1.577497795337E+00 -3.714745501772E-01 5.706739137826E-02 2.036547319649E-01 2.353339777460E+00 1.053235001147E-01 -1.409700577257E+00 1.544584959753E+01 -3.551849049561E-01 1.326348951314E+00 2.211724625672E+00 6.336188433915E-02 -2.953799233512E+01 5.817770511254E+01 -3.782650042522E-01 1.239306216746E+01 -1.893654070349E+01 -8.168762273192E-03 3.427662610783E+01 2.521436770649E+03
 -3.829393559846E-01 -3.223296719694E-01 7.405064989375E+00 1.148145505760E+00 -2.088791551166E-01 1.132091590579E+01 6.096563855650E-01 3.172379733852E-01 7.454104742123E-01 -4.316547810553E-01 -4.617698539301E-01 -3.011027491148E-01 -3.807924956211E-02 8.634012334312E-01 -5.504469359004E-01 8.593354031386E+00 8.911859652829E+00 -8.678585872005E+01 -9.565593339193E-02 4.498423389133E-01 5.663830417422E+00 -1.022144056170E-01 -3.424049392685E-01 5.674014768179E+00 1.205905241033E-01 -8.683623230425E-01 1.153684220773E+00 4.547297464755E-01 -4.762060988258E-02 3.798845261320E-01 2.710433397104E-01 -2.641690952908E-01 7.545122517083E+00 6.514548235882E-01 1.195072889757E+00 3.840858799496E-01 -8.884514844272E+00 -2.385838870946E+01 1.878318266483E+02
 5.943542047134E-03 -1.799525386879E+00 3.441418282909E-01 -2.138753429443E+01 -3.609496464646E+01 4.227409443969E-01 2.217607149315E-01 3.486854472721E+00 3.204719205132E-01 1.900862680506E+00 9.324830517539E-01 -1.112281186569E-01 2.032660837262E+00 -3.099892903341E+00 9.702144885323E-02 -2.644444273325E+00 -1.594003078121E+00 4.201978618629E-02 1.589267481302E+00 -5.807478572993E-01 1.716826477199E-01 -1.112185783610E+00 1.089944926896E+00 3.805980785362E-01 -9.730447785798E+00 -7.325953347757E+00 2.402375271405E-01 -7.823482111445E-01 2.717686535515E+00 2.390193640478E-02 4.457339774060E+01 -7.257816817486E+01 1.349259877693E+00 -1.873065833498E+01 4.359655885745E+01 -5.166055559613E-01 4.286019175112E+01 7.048079403424E+01 -8.509796689699E-01 2.914885229951E+03
 -5.177689429840E-01 -6.776282598115E-01 -1.012561058964E-03 4.015666561072E+01 6.503479221815E+01 -7.061292927576E-01 4.508910795814E+00 4.522427984581E+00 -3.893729629983E-01 -2.272137928831E+00 -2.010263644882E+00 8.818029454149E-02 -2.170706226131E+00 2.284158589920E+00 -1.942619233102E-01 4.960660740184E-01 -6.650859864792E-01 1.715885980607E-01 8.980831586668E-01 1.872383341465E+00 -1.517736415993E-01 -4.244824589713E-01 -1.869481414066E+00 -2.821241989129E-01 -8.909861921080E+00 -1.264565808221E+01 -1.807278588672E-01 2.603289359015E+00 2.408106959915E+00 1.358126872045E-01 -9.040163721962E+00 3.530789927339E+00 3.339214139394E-01 -1.962017470939E+01 8.879176830251E+01 -1.432603329532E+00 -1.154039256019E+00 -3.132061111466E-01 -3.666543038981E-01 2.644019425273E+01 2.859636837818E+03
 3.856830693114E-01 -4.077607850766E-01 5.295783064216E-01 -4.883234830696E-01 -6.420104751459E-01 9.871732325283E+00 -8.157592921138E-01 -3.954375445117E-01 -9.806836784130E-01 9.073659187061E-01 7.334360732627E-01 1.640098821350E-01 2.142158778563E-01 -1.465923853956E+00 -1.971249487761E-01 -4.239800072276E-01 -7.087384728737E-01 -1.050405711834E+01 2.583932610125E-01 -6.014667311378E-01 -4.964239409895E-01 -1.225640574463E-01 9.141532823128E-01 3.829475760937E+00 -3.783930884784E-01 1.476214898914E+00 -8.493385839609E-01 -7.073952462786E-01 3.165030846663E-01 1.232646031633E-03 9.586826100479E-01 -7.779968197947E-01 1.023527147343E+01 -3.318339659407E-01 -4.102487321989E+00 4.766689243533E+00 6.889809339136E-02 -3.954229156048E-01 1.120300911219E+01 -6.375402438737E+00 -3.827492570382E+01 2.053926750631E+02
 7.413867624749E-01 -1.810280787118E+00 -1.951521216377E-01 -6.303795121487E-01 2.393035691516E+00 5.860670913710E-02 -3.345627430586E+00 -4.612898233457E+00 -1.696739856837E-02 2.121138577986E+00 3.049574679064E+00 -7.523501061360E-03 -7.079398755029E+00 -6.180180562684E+00 3.071661995387E-01 1.428201477017E+00 -1.536829065619E+00 -1.253427700870E-01 5.775304654611E-02 -2.220446958105E+00 1.054619263844E-01 8.486495847967E-01 3.548389543843E+00 1.600643029821E-01 2.101687824031E+00 1.048383253510E+01 -1.148398562252E-01 -2.600399633304E+00 8.446934919188E-01 -2.896687375441E-01 -1.227677404859E+03 4.542144630121E+02 2.134440963521E+00 -5.370756332330E+02 -1.157966732297E+02 5.545621192105E+00 -1.019621638465E+00 -3.270918661628E+00 -1.346357355390E-01 -4.054601852871E+00 1.791036911176E+00 -2.340173876085E-01 2.803602442596E+03
 -4.376911434102E+00 -7.627542821958E+00 3.055402747286E-01 1.969396927592E+00 1.805993825784E-01 2.291322951387E-01 1.603810206742E+01 1.468992618384E+01 -1.376916437285E+00 -5.628800577315E+00 -5.941262100602E+00 1.857039217266E-01 -1.557440499755E+01 -6.508311981375E+00 -3.597516186521E-01 -6.704144374313E-01 3.767685242901E-01 5.566073297620E-01 7.180221329600E+00 5.493104673076E+00 -4.861066204638E-01 -2.106791175924E+00 -3.087978233265E+00 -1.209129641812E+00 -4.085502918264E+01 -3.159221082725E+01 -7.464936334325E-01 1.114958520278E+01 1.248239352866E+01 5.500731589087E-01 4.589004107198E+02 -7.208980644258E+02 6.560854221546E+00 1.683207678379E+01 -1.449100671668E+03 2.355619497541E+01 1.522255824640E+00 -3.734790566200E+00 -4.657843885985E-01 -7.966148900656E+00 -1.208449015609E+01 1.531081035610E+00 -3.128872485763E+01 2.761649317408E+03
 2.743693970364E-01 -5.983022782491E-01 4.364869307831E-01 -1.560991138954E-01 -1.071643816706E-01 4.716057931651E-02 -1.262409377598E+00 -1.377644910750E+00 -1.418989201121E+00 9.884458363604E-01 6.351859591257E-01 2.094602993606E-01 1.164278124617E+00 -2.013570681916E+00 1.714854126182E-01 -3.064068110204E-01 -2.579460587233E-01 2.973769247365E-02 2.074481439902E-01 -7.747443351178E-01 -5.414718344496E-01 -1.585874489906E-01 9.086230660724E-01 -1.122681624530E+00 9.676931664594E-01 3.814854445931E+00 -1.393072687726E+00 -6.234837745555E-01 -6.645821329921E-02 -4.203175186632E-02 4.857458121095E+00 2.735651663985E+00 -8.276509040235E+01 -2.643317636171E-01 2.434544206546E+01 -7.677998522771E+01 3.469190075230E-01 -6.521759361638E-01 4.157758261533E+00 -4.579557811841E-01 6.478305972592E-01 -7.909733361249E+00 -2.310281588694E+01 -4.395974516341E+01 1.957505189906E+02
 2.011743858110E-01 -2.234569092298E+00 4.696097911415E-03 -1.047464786559E+00 1.232494616403E+00 -3.977790120400E-02 -1.349152445594E+00 -2.012457076720E+00 4.683001079259E-01 1.650155104913E+00 1.707853654982E+00 -1.421243801485E-01 -3.639991817856E+00 -6.004958547112E+00 2.673040881973E-01 -2.140815775256E+01 3.779368294976E+01 -3.269589501692E-01 1.472987533617E+00 -1.447387296234E+00 2.191544296852E-01 2.730680513909E-01 2.385527786873E+00 5.636900956604E-01 -2.231961233011E+00 6.477834658622E+00 2.463654430207E-01 -9.657203348086E-01 1.840202978106E+00 -1.114346047042E-01 -1.256288364640E+03 -4.436531747109E+02 1.189148312722E+01 -8.655638592651E-01 -1.502845592139E+01 4.636727035574E-01 -1.232561133902E+03 4.540828325231E+02 -4.520571858251E-01 -4.900626310703E+02 -9.256420765226E+00 7.888545475366E-01 -2.232085810240E+01 -3.055282330556E+01 -9.730212328905E-01 2.872817454244E+03
 1.042537965799E+00 -2.142007370951E-01 4.375128516739E-01 -5.768391141101E-01 -1.102020733660E+00 -3.002535711381E-01 -3.388154220968E+00 -1.143473159040E+00 5.592110368783E-01 2.368404421264E+00 1.800265018815E+00 -1.418568562723E-01 4.421919881854E+00 -1.817400677373E+00 6.085289091477E-02 -3.818316866501E+01 6.454835519017E+01 -6.270360384119E-01 -4.249570616297E-02 -1.300265289789E+00 2.070969835319E-01 -2.225627373072E-01 1.554285987458E+00 4.293321908953E-01 1.688482457021E+00 2.970331652764E+00 3.901021050799E-01 -2.350110522921E+00 -8.637850228909E-01 -1.019523286429E-02 -4.488884823189E+02 -7.374178628583E+02 1.169936806646E+01 -1.313369911108E+01 -9.521667320960E+00 -9.829912218888E-02 4.758163341299E+02 -7.524344838337E+02 7.132177780372E+00 -1.188004897433E+01 -1.511316368562E+03 2.005033584143E+01 3.368148523632E+01 7.411914950431E+01 -1.488711832569E+00 -7.585601885690E+00 2.872776327952E+03
 6.380020794342E-02 -4.440710616783E-02 4.561429822956E+00 -4.403330892411E-02 -1.287610259500E-01 -9.938392328131E+00 8.657448353723E-01 4.011413900684E-01 6.957160700393E-01 -7.319620890783E-01 -6.237221592283E-01 3.530599414831E-03 -5.883278114993E-01 5.005627748169E-01 4.824814021194E-01 6.700923627092E-01 -3.459170789597E-01 1.035787354447E+01 -3.689129831656E-02 5.922061703216E-01 3.579593597361E-01 3.061792656165E-01 -4.113641465309E-01 1.041097938650E+00 -2.776910388870E-01 -1.195717865067E-01 3.536679676466E-01 7.780212822639E-01 4.549164025932E-02 -4.040466186493E-01 1.110535320153E+01 1.143112238316E+01 -8.399007857524E+01 1.897607645274E+00 2.248181454924E+00 -1.008633759677E+01 -1.587070672063E+00 6.211213500031E+00 -8.263773447813E+01 1.672191721147E+00 2.032716569990E+01 -8.784994880970E+01 4.049507063922E-01 -2.465728500281E+00 8.921912288244E+00 -1.178049480128E+01 -3.702049688060E+01 1.976623225119E+02
 -1.783048029427E+00 -2.508272120394E+00 -1.304756004693E-01 1.328199679544E+00 -1.273313347890E+00 -3.388392931360E-03 4.116889410704E+00 5.995916476840E-01 -9.525514748991E-01 -2.766258287079E+00 -2.597250929529E+00 6.901072600040E-02 -1.125767734875E+01 -4.456436054764E+00 -8.687609539856E-02 1.407053579477E+00 1.662490641583E+00 2.324241645930E-01 9.793717730188E-01 2.091815430838E+00 -1.966744224123E-01 -1.267306320158E-01 -1.704652998320E-01 -4.772882668711E-01 -7.329552052522E+00 1.459076777560E+00 -5.710398244793E-01 4.233918325453E+00 2.431539778098E+00 3.277911778885E-01 -8.070527913891E+00 -1.734568383287E+00 8.787633019231E-01 -1.280604156733E+03 -3.025621541435E+02 9.023593137418E+00 -1.429643380133E+00 -3.044973354105E+00 -4.807231920488E-02 -1.304926422717E+03 3.756331135616E+02 -1.873735984682E+00 4.430110719975E+01 -1.392309553313E+01 3.785244880046E-01 4.220636290168E+01 3.173053696969E+00 -8.295482401075E-01 3.072818171080E+03
 -3.203057318462E+00 -1.366187665175E+01 -2.634018439447E-02 2.974222884440E+00 -3.098145433842E+00 1.568074640178E-01 9.977514454665E+00 2.828558304669E-01 -1.000734691061E+00 -1.918706785121E+00 -5.562373084399E+00 6.900115209086E-02 -1.658296590758E+01 -2.144007243959E+01 2.758260451958E-01 8.236406410650E-02 7.398400144090E-01 5.057971440369E-01 6.805569054086E+00 4.668580869598E+00 -1.687869531942E-01 -1.783334748552E+00 5.682976387927E+00 -4.038894908839E-01 -2.715404288058E+01 1.355023276449E+01 -1.035898797243E+00 9.420087189101E+00 1.365942550435E+01 2.290682829954E-01 -5.670984353324E+00 -8.029704190803E-01 1.321271389221E+00 -3.885410639630E+02 -8.460187114936E+02 1.476244936899E+01 1.165940345691E+00 -1.191100699114E+01 -3.028974998953E-01 4.214569031862E+02 -7.600821636246E+02 1.001924851338E+01 -8.033081794360E+01 -3.844047185009E+01 3.171840350421E+00 6.584102174792E+01 2.494267452662E+00 -7.028312808297E-01 -6.727553932550E+01 3.098379365776E+03
 -2.624431678196E-01 1.130971890772E+00 -1.351133864218E-01 4.162812368864E-02 -9.465416993380E-02 4.952609326338E+00 -4.324645500005E-01 -6.650465741337E-03 5.018813791012E-01 -1.893387103387E-01 -9.313409872527E-02 -1.744442292893E-01 1.048639721678E+00 1.859922727269E+00 4.759780250611E-03 6.850220234101E-02 1.686384246154E-01 2.936900287444E-01 -6.990701624525E-01 -1.245637996364E-01 2.060228521506E-01 -2.174653377264E-03 -6.654092622289E-01 7.061790137124E-01 1.741067618779E+00 -2.082504211927E+00 4.755686317280E-01 -3.902522341331E-01 -1.036994421184E+00 2.454442639309E-01 -6.407503029248E-02 1.172496530498E+00 -9.624463206496E+00 1.167321729418E+01 1.691677262728E+01 -8.656730869478E+01 -3.293951474761E-01 1.050043371010E+00 5.090458716192E+00 -1.938065657852E+00 9.652452423648E+00 -8.572367563104E+01 1.194411864833E+00 1.349910165242E+00 5.422318578241E+00 -9.093097384056E-01 -1.657046113490E-02 5.943475505346E+00 -1.046965268755E+01 -5.258020236977E+01 1.998579241653E+02
 -4.535292483033E-01 -1.587365188606E-01 -1.759433100420E-01 -1.302204394719E+03 5.060459545318E+02 -5.918894009430E+00 -6.528993324442E-01 -4.194001352531E+00 -2.202433671383E-01 -1.738871216323E+00 -8.064854078844E-01 -2.799085902609E-02 -6.309321818075E+00 -2.122300578781E+00 6.906073458421E-02 4.616966512650E+01 2.773994839070E-01 2.548920189532E-01 -2.470712449608E-01 7.940050567529E-01 -3.216532605270E-02 -2.693660648071E+01 3.721026213952E+01 -6.356338478862E-01 8.836338800960E+00 1.525454254112E+01 -2.500102844882E-01 -4.983954166174E-01 -2.281445002995E+00 -3.745645942981E-02 9.723414658701E-01 1.097775804457E+00 -2.556381118500E-01 2.096842704113E+00 -1.706983726500E+01 4.246236673985E-01 -7.035413514081E-01 -1.239853271547E+00 -3.554402547090E-01 -1.260761774093E+03 -4.553190705136E+02 7.718101060881E+00 3.813744459686E-01 1.574051831314E+00 -2.883736858080E-01 4.066410355354E+01 1.267381938310E+00 -1.163542231246E-01 -2.072648333597E+01 -3.690379014045E+01 6.812190815609E-01 2.888003895833E+03
 1.242238768571E+00 3.770192323939E+00 -7.839305109120E-02 4.927193013032E+02 -7.951405331588E+02 9.334726652552E+00 -1.559879227630E+00 -3.118710891397E+00 3.834579551080E-01 -5.379605997354E-01 7.082173778519E-01 1.445948627807E-01 6.535697366595E+00 8.192075529356E+00 -1.376179864057E-01 7.422901864943E+01 -3.201848785170E-01 -2.016070805273E-01 -2.444226724719E+00 -5.218591480176E-01 -8.451123863424E-02 -3.257549600131E+01 6.453358150619E+01 -9.179464901633E-01 1.288517126532E+01 1.689712575044E+00 2.692162607493E-01 -1.419488570625E-01 -3.718842369732E+00 -1.726917040968E-01 1.571152669064E+00 1.089222462689E+00 -7.842579099974E-01 -1.883888482458E+01 -4.676040647210E+00 9.293658391570E-01 -1.342565504023E+00 1.984126452462E+00 -1.320466557146E-01 -4.327721824177E+02 -7.289172906628E+02 1.039033922049E+01 8.619436126477E-01 1.097976902781E+01 3.045417477965E-01 -7.002491983675E+01 1.182934538556E+00 1.845608359706E-01 3.804312507420E+01 7.754574606959E+01 -1.732457737685E+00 -1.845460336740E+01 2.547817529081E+03
 -1.277755345033E-01 2.401751835600E-01 5.668383481755E+00 -6.331029684317E+00 9.055300844139E+00 -8.513703712604E+01 4.124274564139E-02 1.021632295051E-01 1.347278472538E-01 7.311467138948E-02 -4.706273081743E-02 5.039185959317E+00 5.669512247243E-02 2.150211651425E-01 -3.176911780799E-01 -7.133073830034E-01 3.543197890400E-01 1.196905498488E+01 -9.718951957863E-02 -2.201282336250E-02 -5.108936734974E-02 3.351575376904E-01 -7.055748310791E-01 5.976011883872E+00 1.952745974760E-02 -4.252092398618E-01 2.322386719751E-01 6.134423444232E-03 1.728297549399E-02 2.365885042656E-01 1.654605354646E-01 3.805647025483E-01 6.190023591725E+00 7.110237707141E-02 3.238394053632E-01 5.578359842237E+00 1.050619064258E-01 -1.420999716153E-01 -9.544644996994E+00 7.629788429226E+00 9.742292455120E+00 -9.244428104084E+01 -3.056608908863E-01 1.271860064334E-02 -2.476344589108E-01 8.713031791703E-01 3.251405834537E-01 9.642874821468E+00 -3.151103196840E-01 -6.854845283463E-01 1.480300971471E+01 -1.968809624608E+00 -3.560126247687E+01 1.920715568198E+02