#BIOSYM hessian 1
@Type: Hessian Update
@Units
 distance: 	A
 energy: 	Kcal/Mol
#header
@natom 72

#label
C1      C2      C3      C4      C5      C6      C7      C8      C9      C10     C11     C12     C13     C14     C15     C16     C17     C18     C19     C20     C21     C22     C23     C24     C25     C26     C27     C28     C29     C30     C31     C32     C33     C34     C35     C36     C37     C38     C39     C40     C41     C42     C43     C44     C45     C46     C47     C48     H49     H50     H51     H52     H53     H54     H55     H56     H57     H58     H59     H60     H61     H62     H63     H64     O65     H66     C67     O68     O69     H70     O71     H72

#element
C  C  C  C  C  C  C  C  C  C  C  C  C  C  C  C  C  C  C  C  C  C  C  C  C  C  C  C  C  C  C  C  C  C  C  C  C  C  C  C  C  C  C  C  C  C  C  C  H  H  H  H  H  H  H  H  H  H  H  H  H  H  H  H  O  H  C  O  O  H  O  H 

#matrix
216
 2.805157702739E+03
 -2.310674564891E+01 2.821807017280E+03
 1.948264789923E+01 -1.195129796853E+01 1.933249633938E+02
 3.989910395395E+01 6.660934242855E+01 1.750396119558E-01 2.785542219285E+03
 -5.343636313523E-01 -8.945711914467E-01 6.383041693315E-02 -2.912969032333E+01 2.744219810940E+03
 3.178586377783E-01 6.406019750396E-01 8.525494541273E+00 1.977573014534E+01 -5.725782990082E+00 1.883887231052E+02
 -1.919654816114E+01 3.452270131693E+01 -2.696427615553E-01 -6.055710574515E-04 9.279352603675E-04 1.064901087935E-02 2.825054272623E+03
 -3.302558844250E+01 5.939198646000E+01 -4.507607483703E-01 -1.127920399063E-03 -7.033541951835E-04 -1.311221565421E-03 3.108142188955E+01 2.756745426925E+03
 -9.239669577062E-02 2.233230279111E-02 8.910960114915E+00 -4.690451302214E-03 5.722072492770E-05 4.623095862035E-05 1.590355684936E+01 -1.116374701727E+01 1.892423041814E+02
 3.753611822672E+01 -6.749990291705E+01 3.372759090766E-01 -1.958387523923E+01 3.487052501481E+01 -2.308700059272E-01 4.009925905583E+01 6.899051050563E+01 8.813788588741E-03 2.790557858681E+03
 -4.342806864663E-01 7.790101282238E-01 5.884861048321E-02 -3.199773635780E+01 5.697816286196E+01 -3.485999876879E-01 -4.638546182578E-01 -7.964086172377E-01 3.804445100213E-02 2.210034935308E+00 2.821751289797E+03
 1.508546630324E-01 -3.761763049684E-01 8.940433563609E+00 -1.630210837818E-01 1.144316088217E-01 8.359820218320E+00 2.548852667585E-01 5.244077527276E-01 9.610859299433E+00 1.540740574231E+01 -7.587734143802E+00 1.948773709461E+02
 3.387793532042E-04 -3.779065233846E-04 -1.170243417184E-02 -4.627063542250E-05 -1.439053840906E-04 -1.124611428015E-03 5.031587326299E+01 -8.416640264792E+01 5.546180359529E-01 -2.097732947702E+01 3.674303313941E+01 -2.592072786891E-01 3.175614111188E+03
 -2.911839498838E-04 1.988590334229E-04 -7.115693864282E-03 -2.207394478274E-04 -5.535427959467E-05 -1.380422308260E-02 -7.073544463253E-01 1.185704716921E+00 4.714861873269E-02 -3.410092387531E+01 5.972748270506E+01 -3.963226582742E-01 1.757501814843E+02 3.369544737485E+03
 1.056991232595E-03 5.516303849511E-03 -5.133121095433E-05 -6.154120469115E-03 -6.906242088754E-03 4.806678843946E-05 2.191911306752E-01 -4.343811529936E-01 1.083900940401E+01 -1.096088089626E-01 3.805280440296E-02 1.019301583592E+01 1.603680769165E+01 -9.970515636728E+00 1.946386214985E+02
 -1.232103738337E+03 4.534064797281E+02 -1.077962523052E+01 -4.582194880385E+02 -1.661400207742E+01 -3.171677183619E+00 -1.322692479853E-04 8.832782968506E-04 -3.213578920230E-02 -6.946620814598E-04 1.301863569060E-03 1.229237227369E-01 -9.026083875966E-05 4.127961833633E-04 7.820948706126E-03 2.801244453851E+03
 4.488146431235E+02 -7.496604612066E+02 5.724496323053E+00 -1.413949153269E+01 -1.414734801062E+03 2.832797890370E+00 -2.211888391290E-04 6.230965359999E-04 1.884672637638E-02 1.897587619489E-04 -9.886861765678E-04 -3.079221543777E-02 -3.951371808610E-05 -3.623018512067E-04 -5.274626123313E-03 -1.131907285150E+01 2.757500052731E+03
 -1.064794966951E+01 5.649734219069E+00 -8.329548044602E+01 -3.190887299979E+00 2.911659464069E+00 -7.961635272464E+01 -1.769872557685E-02 2.473192528112E-03 4.705089070750E+00 6.549938689214E-04 -2.959449742347E-02 -8.867344168195E+00 -7.538142271360E-03 -6.733004051740E-03 4.090393089272E-05 2.475985887831E+01 -5.305644740371E+00 1.904099983164E+02
 -1.211180129735E+03 -4.135130398384E+02 -6.232736714297E+00 -1.345381997992E-03 8.527576845326E-04 4.176382538475E-03 -1.235696793780E+03 4.401369094359E+02 -8.778274089912E+00 -4.729603127882E+02 -1.003082781258E+01 -2.403524385107E+00 -6.780153169645E-04 -1.071837430707E-03 1.032153928363E-01 -1.970480484220E+01 -3.290430939313E+01 -5.118786512064E-02 2.804526028297E+03
 -4.132900138113E+02 -6.985801258671E+02 -4.483436368003E-01 4.041643489877E-03 6.049345440280E-04 -1.838915787178E-02 4.490551823496E+02 -7.351170018878E+02 5.228228681873E+00 -1.387061592214E+01 -1.466151802225E+03 4.053993554940E+00 -1.000138624881E-05 -3.773239315900E-04 -4.410626307536E-02 3.543756185868E+01 5.917098871187E+01 1.034519678844E-01 -1.617068465276E+01 2.778908274377E+03
 -6.459026662009E+00 -6.240234747619E-01 -8.165625037791E+01 1.250700673213E-01 -3.213303153663E-02 -8.863362879444E+00 -8.577538897353E+00 5.007323312865E+00 -8.323003062902E+01 -2.372951951335E+00 4.325925551399E+00 -8.274799200412E+01 9.776147605736E-04 -7.619070532234E-02 -1.040375450681E+01 -3.609514754113E-01 -3.813399184323E-01 8.711155075383E+00 1.707422278766E+01 -8.391279371269E+00 1.926522848148E+02
 -6.199002798879E-04 3.937426540876E-04 7.053082979834E-02 -1.193533294352E+03 -4.160764337165E+02 -7.191263519898E+00 1.524445062379E-03 -6.977087250356E-04 -1.755059696657E-02 -1.191047267328E+03 4.443080020947E+02 -8.038276208512E+00 1.122325933281E-04 -4.679130047232E-04 -2.918969739151E-02 3.638298785830E+01 -4.866786255432E-01 2.566158609182E-01 4.089146335415E+01 -4.740376402204E-01 1.297629385705E-01 2.728351661780E+03
 -1.118496508999E-04 1.404379966910E-03 -8.185464844594E-02 -4.184480968727E+02 -6.925749738756E+02 -1.804664235201E+00 3.471650861868E-04 1.514959617415E-03 1.765641416756E-02 4.460658408826E+02 -7.397425998807E+02 4.313817410497E+00 3.603031234720E-04 -5.542792138744E-04 2.241457436780E-02 -6.478925885377E+01 8.695022959125E-01 -5.085814904398E-01 6.680778571311E+01 -7.729687813898E-01 3.715353909868E-01 -1.044057215449E+01 2.745291422724E+03
 5.973865285980E-02 1.772771417523E-02 -8.935982781965E+00 -7.339450920409E+00 -1.933555635223E+00 -7.939947133690E+01 -1.863158531895E-02 2.762938074179E-02 4.635791451165E+00 -7.897320538563E+00 4.169849920091E+00 -8.092862750450E+01 -2.209252505366E-02 3.304163974034E-03 4.546677383846E+00 4.069794111821E-01 -1.612728429600E-02 8.758941502118E+00 -6.905708108454E-02 -7.879786668922E-03 9.033576251016E+00 1.750636202332E+01 -4.119436722918E+00 1.856348636524E+02
 -3.033483790540E-04 -1.830208627102E-04 -2.678145426388E-02 9.402280173546E-05 1.758162660425E-04 -8.524727523480E-03 -1.262009393820E+03 -4.475696874697E+02 -5.456464972681E+00 4.358154673169E-04 1.089592973061E-03 -3.868689685369E-03 -6.070567078969E+02 -9.175880030740E-01 -2.969998309361E+00 1.000595955934E-04 1.484262196451E-04 -2.238559390570E-04 -2.141456495365E+01 -3.683911159215E+01 -4.009173911787E-02 -5.890356743018E-04 -1.149403289340E-03 -7.576521272128E-03 2.647326744905E+03
 6.501531385744E-05 4.084914814831E-04 3.559093102910E-02 2.598242167610E-04 4.539031656744E-04 8.909106517363E-03 -4.621610359855E+02 -7.723634721841E+02 1.543315471656E-02 -9.642597753663E-04 4.491114347700E-04 -9.459306291366E-04 -2.260438059899E+01 -1.802991181135E+03 6.272716837781E+00 -4.470098039277E-04 -1.495892678849E-04 1.276136734601E-02 3.581955787279E+01 6.162498705767E+01 1.051836501241E-01 1.104331210918E-03 -7.223075054202E-05 -4.953508536428E-04 1.979602834184E+02 3.015804843294E+03
 -3.401061889750E-02 2.416893696540E-02 4.711835783735E+00 1.813932615552E-03 9.321446589419E-04 -1.058951254025E-04 -5.517999082305E+00 2.115839599651E-02 -7.906772078003E+01 8.769335294605E-02 -3.557782918401E-02 -1.030688545116E+01 -2.892541850809E+00 6.589905376004E+00 -9.426899757560E+01 -1.231173057085E-03 8.543478074010E-04 -4.794555903099E-05 -3.238440609784E-01 -3.996974661699E-01 9.990736019906E+00 2.960389384780E-04 5.081299030676E-05 -1.272409030413E-05 1.427015039590E+01 -9.791790449083E+00 1.736398148582E+02
 -1.411895035624E-04 3.466345802982E-04 -1.374640900985E-02 3.801487203187E-04 -2.671800209126E-04 -9.198509779764E-03 -3.521877573686E-04 5.141647198514E-05 4.470304741101E-02 -1.245686335576E+03 -4.321528158167E+02 -5.345898390632E+00 -1.222453134312E+03 4.267993710142E+02 -7.486089938155E+00 -2.792059430702E-04 2.960719090913E-04 8.598913990082E-03 3.950697256393E+01 -4.566578180068E-01 2.390615883385E-01 -2.060232165631E+01 -3.365799996974E+01 -4.352164731973E-02 5.004554060392E+01 -7.039354353951E-01 1.787521317080E-01 2.849685548497E+03
 6.130147648523E-04 -6.158914632310E-04 3.972597081688E-03 6.269997914336E-04 -1.838335101233E-04 2.461512401007E-02 1.063843338499E-04 6.241072845193E-04 -6.548537281934E-02 -4.355140113326E+02 -7.320372238673E+02 -7.165931317580E-01 4.341792719292E+02 -7.922294961061E+02 4.413325579824E+00 -9.520424029528E-04 8.342520415671E-04 -3.873144867459E-04 -6.919075389971E+01 7.973649345102E-01 -4.214390798041E-01 3.608640116971E+01 5.895889814034E+01 1.372040540910E-01 8.134753246910E+01 -1.145945918183E+00 4.288558916666E-01 7.554427617776E+00 2.966815026732E+03
 -1.471324746427E-02 1.749862355850E-02 4.554525639273E+00 -4.335030870825E-02 1.076786157758E-02 4.425061424716E+00 4.838938587436E-02 -2.799973208645E-02 -1.038829355617E+01 -5.498049624567E+00 -8.565279214417E-01 -8.767953799591E+01 -7.347840790393E+00 4.257844811958E+00 -8.637012207020E+01 1.416529252352E-03 -1.315504000390E-02 1.023193895167E-04 3.889955893803E-01 3.069450404821E-02 9.198802587818E+00 -2.705985961204E-01 -3.067020737532E-01 9.452048295415E+00 -1.151938313894E-01 2.690781062969E-02 1.046421249597E+01 1.490272229573E+01 -5.841208295336E+00 2.012951415294E+02
 1.081554302277E-04 -5.763898703327E-04 -5.716538496625E-03 2.449800403925E-04 -1.097990373645E-03 3.126744991171E-03 1.024822673869E-04 4.124654120013E-04 -3.989204815596E-03 2.359680168731E-04 -8.779058732546E-05 -8.856191945681E-04 1.343996883319E-04 2.101228450044E-04 -5.216768945663E-04 2.537006985086E-04 4.588635949465E-04 -7.716607666125E-02 -4.404960261909E-04 -2.120253894521E-04 -2.219586176683E-04 -2.555505350062E-05 1.633083710371E-04 -2.406086699000E-03 9.830021268930E-05 -3.083681704955E-04 4.559977993505E-04 -2.741360899970E-04 -6.572013597039E-05 -5.617025669125E-04 2.818792618538E+03
 -6.338104037191E-04 6.331049697077E-04 -1.661232462068E-02 6.939377783670E-04 5.780920695584E-04 -2.520328438412E-03 -3.037615432181E-04 6.456467086472E-04 5.738644250313E-03 3.952877085917E-04 -9.610012491785E-05 3.173020117307E-03 3.581207676319E-04 3.419795743848E-04 2.743340492080E-03 -6.138221055798E-04 -2.001719184696E-03 -1.984821133441E-02 -1.169109490893E-04 -8.072576207929E-04 -5.877918483776E-03 -2.638662721149E-04 5.612559900822E-04 4.145682524438E-03 -1.587067497202E-04 -3.735232319742E-04 -2.132062085290E-04 -3.899458982273E-04 -5.176577030129E-05 9.844333288147E-04 -4.461702117060E+01 2.782520828562E+03
 1.822082211240E-05 -5.443619117035E-03 1.355461150974E-04 -3.589151263813E-03 7.116381740498E-03 7.632319145517E-05 9.349130658141E-04 -3.001480464409E-03 -1.436562726297E-04 -2.982426316346E-03 -1.285022408701E-03 -8.127216996095E-05 -1.139781438261E-03 -2.027996770543E-03 -5.878726493010E-05 -4.331950282850E-02 2.094967395830E-02 4.428427273376E+00 2.132426731369E-03 3.151960430345E-03 9.204839588718E-05 4.262223628391E-03 -1.671890264165E-03 -7.165329056240E-05 -6.931273769481E-04 2.425675520896E-03 -8.848426063804E-07 2.381912685671E-03 1.294820213418E-03 -1.035273806536E-05 5.080117822318E+01 -1.662648316749E+01 1.919357492897E+02
 -4.483397293263E-04 1.394371506668E-04 7.050881232100E-03 6.319918830486E-04 -1.265054589657E-03 -5.215210679971E-03 1.057350807662E-05 1.821762421499E-04 -3.780801973291E-03 4.926558090520E-04 2.097458861084E-04 -3.904934833666E-03 1.896910204369E-05 2.050851745070E-04 -1.911268411630E-03 -5.189804817691E-04 1.052152101243E-03 1.462236626512E-02 -5.158650046137E-04 -2.234350635900E-05 3.547415902698E-03 -7.326205842677E-04 1.062179779918E-04 -3.475347882025E-03 2.224663092061E-04 -2.402177967772E-04 2.568478135116E-04 -2.986392847022E-04 -1.519678183128E-04 -3.583421151416E-04 4.707814944347E+01 7.898149620208E+01 1.756100553011E+00 2.740384116684E+03
 -1.930767049907E-04 -9.097070937577E-04 -3.152003807058E-03 -8.384847338591E-04 3.770180504770E-04 -1.040220997832E-03 -6.591078732969E-05 -3.378417723052E-04 9.540741996109E-04 -3.901378267285E-04 -5.656900349309E-05 2.844471752778E-04 -4.944514952684E-05 -8.731826616065E-05 4.678083530499E-04 8.362927026430E-04 1.108423568529E-03 -3.278868433238E-03 3.264530024486E-04 4.984626079744E-04 -5.276249493645E-04 3.919956716016E-04 -2.020746733447E-04 -1.279268118079E-04 -6.709932914474E-05 1.932273919890E-04 3.564583123674E-05 1.671480290604E-04 5.648256094574E-05 -5.032404786867E-06 -1.191440133329E+00 -2.010742084433E+00 -1.912594960635E-01 2.580938542792E+02 2.957959024499E+03
 1.947586942615E-03 5.999364936957E-03 2.751220245434E-05 1.017309240831E-02 -3.583731241157E-03 8.779774786874E-05 6.965991249698E-04 1.900289528432E-03 -3.026347335538E-05 2.943176163636E-03 -4.180617286775E-04 5.026572910367E-07 4.799145415384E-04 3.006629884559E-04 -6.096270895147E-06 -8.651194729735E-03 -9.237694721505E-03 -3.455605154087E-06 -2.813129209121E-03 -2.488939534902E-03 7.012059562444E-06 -1.885710445203E-03 2.264114931532E-03 -4.017888412331E-05 -7.645763066125E-05 -7.605205717346E-04 -5.497172351010E-06 -5.048679528727E-04 4.931967530221E-04 -5.204454924272E-06 9.106993078704E-01 2.061331704124E+00 1.177063063905E+01 7.104581988825E+01 1.919210564456E+01 1.499167894758E+02
 -2.018732079878E+01 -3.371450226785E+01 -2.838813086940E-01 3.725386047349E+01 -4.987743041698E-01 2.460820721044E-01 7.059834663271E-04 2.224608714379E-04 -6.864271241155E-03 -5.276739496570E-04 -1.117340643586E-03 -7.726885922836E-03 2.527910686580E-04 -2.035255142135E-04 3.063009202866E-04 -1.229066444054E+03 -4.247134499922E+02 -1.139053161728E+01 -2.078658976793E-06 4.042224138516E-05 -6.018416671643E-02 2.580671916476E-03 -7.154761039789E-04 -5.346013170986E-02 -3.675358923512E-04 1.753897080671E-04 1.426965234390E-03 3.187008718268E-04 6.410443505504E-04 -1.389486286875E-03 -1.909937476695E+01 3.385640350346E+01 -3.993510885916E-01 2.273875927576E-04 -2.123916632263E-04 -5.946142852647E-04 2.772227362821E+03
 3.597143612475E+01 6.006647123502E+01 2.318256030139E-01 -6.639585733264E+01 8.949867193507E-01 -6.615493385865E-01 -5.024106714882E-04 2.329952416855E-04 1.496528804696E-03 2.784716455531E-04 -1.036620159890E-04 2.770493827860E-03 2.645780097508E-04 2.164223253337E-04 4.516201500448E-03 -4.299647664702E+02 -7.103000532242E+02 -2.828013648457E+00 -2.713909784186E-04 2.035153276181E-04 -6.842384931208E-03 4.828109330098E-04 3.216926857905E-04 1.906716377746E-02 -2.933269852284E-04 -6.523937084515E-05 4.893851560752E-04 -1.414937321248E-04 -2.158465610499E-05 4.683506658462E-03 -3.217657744467E+01 5.702818194687E+01 -4.722502163471E-01 -1.103046720582E-04 -1.403399387229E-03 1.683991739128E-02 1.033860614747E+01 2.789289828585E+03
 -3.091821673578E-01 -4.108432883852E-01 9.572750574188E+00 4.176918889969E-01 3.895261862140E-02 9.063810851035E+00 5.194223572544E-03 -1.136215951668E-02 -1.129334005043E-05 -7.991049931473E-03 5.324789317744E-03 -1.549562434901E-04 -3.609763626727E-03 -5.677151504994E-03 -1.377819287171E-05 -1.130490130648E+01 -2.693963532305E+00 -8.198955589054E+01 -2.115518491353E-02 2.635118684894E-02 4.553613747453E+00 -3.006836146963E-02 1.304769380918E-03 4.349315522145E+00 -1.710564536099E-03 7.168008703199E-03 -2.025490488042E-05 7.306670002854E-03 9.024205609496E-04 -1.628555222939E-05 -4.615504308738E-01 4.934659991970E-01 8.435404144919E+00 2.389969795395E-02 -1.549053079574E-03 -2.070244359109E-05 3.058905229713E+01 -1.156565837213E+01 1.903201065733E+02
 1.138513350796E-03 2.328640825841E-04 1.443120147599E-02 -1.868136508383E+01 -3.134427532864E+01 -2.515637010688E-01 5.065464271957E-04 -5.693645609689E-04 -5.758730552387E-03 -1.355574281220E-04 -1.194549681736E-04 -2.712131871647E-03 -4.104532652940E-04 -5.261266796119E-04 -3.120066379170E-03 -1.712787618350E-03 3.039670452576E-04 1.643947683587E-01 -7.565617866453E-05 3.863931007415E-04 9.018315466181E-03 5.078843537940E-04 -3.120330130746E-04 -4.432467774675E-02 8.895818352478E-05 4.602744839842E-04 -7.533476245552E-05 4.353436729994E-04 2.321251108206E-04 -1.354804077736E-03 3.838724053344E+01 -6.803374339240E+01 2.723227351200E-01 -2.328253790111E+01 4.060838925909E+01 9.168135651243E-02 3.987237406951E+01 6.715154458810E+01 6.861050728360E-01 2.810589400674E+03
 -1.042418048244E-03 1.015463377344E-04 3.313147651077E-03 3.354221879368E+01 5.626686789112E+01 2.743808735083E-01 2.707508826042E-04 2.377184402231E-04 -1.031304638722E-03 7.509846132865E-04 1.770767723499E-04 -1.193324685939E-02 1.717255538536E-04 -1.275996897792E-04 -8.013178130793E-04 1.521719776641E-03 1.161800831887E-04 -4.167012940579E-03 -8.990705760978E-04 -2.445349451315E-04 -2.724353506263E-03 1.817371914745E-04 -1.212705289524E-03 -1.208767716492E-02 -2.346843282791E-04 1.008970879714E-04 1.306872052165E-03 3.062226518594E-04 4.456628582578E-04 -3.527060542466E-04 -2.721145664548E-01 4.997463554446E-01 -9.993225382511E-03 -4.224632987595E+01 7.367426129459E+01 2.383018797425E-01 -2.902435688540E-01 -4.896591833512E-01 2.333430895999E-04 -6.419659621700E+01 2.765694571787E+03
 -2.391247670649E-02 4.163984699868E-03 -1.034030204801E-04 -2.400338784146E-01 -2.454110516478E-01 8.042022915865E+00 -1.144816671723E-02 1.600590508495E-02 -1.755289591677E-04 9.620965813630E-03 1.993093376267E-02 -8.692746914208E-05 7.278283051495E-03 1.619770038665E-02 -6.081305871710E-05 1.024214069433E-01 -2.343394186311E-02 -8.749456129455E+00 3.777294274788E-04 -1.675663128077E-02 8.462348846664E-05 -6.357871753851E-02 -7.291583208477E-03 4.220000067381E+00 6.658463983479E-03 -1.714212824482E-02 1.026702592642E-04 -1.829357181719E-02 -1.581270202142E-02 -9.619970719913E-05 3.720072536996E-01 -9.205956248029E-01 1.019178624504E+01 -1.152590949899E+00 1.362533413037E+00 1.297563572011E+01 5.109357936430E-01 1.028952165826E+00 8.431604723489E+00 2.424285264489E+01 6.596106676294E+00 1.869911612142E+02
 -9.493273444922E-05 -3.327689913461E-05 -2.125986068484E-03 -1.060806196806E-03 1.769932172451E-03 5.752081384681E-03 -2.113213731960E-04 -9.922582903776E-05 2.574624922412E-03 -4.219831119392E-04 1.284244364227E-04 3.219520571451E-03 -9.388630930747E-07 -5.958568823069E-05 1.164006127057E-03 1.369047191939E-03 -1.373448444486E-03 -7.565942437540E-03 5.824523105823E-04 -9.113431474145E-05 -2.381544915240E-03 3.114787958041E-04 -4.828762666876E-04 3.141519836849E-03 -9.106890125462E-05 7.762793304257E-05 -3.017763737039E-04 1.227380119558E-04 -7.860814519794E-05 2.875881941935E-04 -1.279961219752E+03 4.494542556520E+02 -2.706850060710E+01 -5.130499737340E+02 -2.403332472155E+01 -1.503096066104E+01 -2.112709561303E-04 -2.217936628468E-04 -1.059787883204E-01 -1.162357929608E-02 -7.713333441849E-03 2.544220481888E-01 2.563074842048E+03
 5.241836031054E-04 -9.278929724567E-05 9.619292314662E-03 -7.905393824882E-04 -1.047890462599E-03 -5.184534747739E-03 2.987770878171E-04 -1.115461181068E-04 -4.566505182840E-03 1.733085207722E-04 1.145620267812E-04 -4.171518268038E-03 -1.665756793367E-04 -1.341089729730E-04 -2.119296661091E-03 3.860040612678E-04 1.283187475550E-03 1.721879085040E-02 -3.598381618745E-04 1.805222787608E-04 4.105253029439E-03 -3.211645239213E-04 -2.259235661909E-04 -3.540201317485E-03 1.492433113274E-04 4.862408750200E-05 2.975563633295E-04 5.540686351020E-05 -1.568312238809E-05 -3.992124592766E-04 4.783733314984E+02 -7.481279795380E+02 7.552899579705E+00 -5.144308306009E+01 -1.661290618375E+03 -1.206634257443E+01 3.123702238884E-03 7.171722040953E-05 5.770153236843E-02 -1.281209030071E-02 6.045774559693E-04 2.325167175224E-02 -1.397626493933E+02 2.771269631792E+03
 9.232570603177E-04 -4.146618874150E-03 1.162035519093E-04 -8.462430543962E-03 -1.723371410735E-03 6.871949813319E-05 6.587247436820E-05 -4.630418854518E-03 8.199297035563E-05 -4.839007711764E-03 -1.355139578877E-03 2.671147456261E-05 -1.732280387059E-03 -2.697341647056E-03 1.120025040911E-05 1.142279872790E-03 9.071861437192E-03 -1.771777203888E-05 4.172737602850E-03 4.172969985943E-03 -1.351333171996E-05 5.528109778622E-03 -1.164093504938E-03 8.877773134986E-05 -8.471199388539E-04 3.502610645603E-03 -2.537888963587E-05 3.222125331295E-03 1.382667975707E-03 2.918315659731E-05 -2.839482309541E+01 7.569209989166E+00 -8.747671938122E+01 -1.553969911645E+01 -1.478249169858E+01 -7.857553343031E+01 -5.287205579787E-02 1.388916319556E-02 4.627742889278E+00 1.793009890674E-01 1.236559344679E-01 -1.100426506104E+01 9.495689838023E+01 2.883763166852E+01 2.396798624185E+02
 1.499807838695E-04 -1.213382772182E-04 -6.632144978607E-02 -1.108907976168E-03 2.774436020997E-03 1.179795889308E-01 -5.308647058662E-04 2.018550593843E-05 6.869590773675E-03 -1.977937078517E-04 -6.088705003222E-05 9.862663957342E-03 5.039032198846E-05 1.486071170571E-04 2.916194099664E-03 -1.934450405794E+01 3.447356898885E+01 -5.120453899783E-01 3.044453114200E-04 2.753801806098E-04 -3.816646431636E-03 -5.194161499865E-04 8.031538392122E-04 1.196128960031E-02 -8.927768816169E-05 -7.022778749148E-05 -9.645281340493E-04 -1.967950873062E-04 -1.617253485905E-04 1.879207800485E-03 -1.204709898652E+03 -4.159573896337E+02 -1.776874270075E+01 -4.506970367993E-03 6.504063462924E-04 1.309404940902E-01 -1.187439208924E+03 4.286268582288E+02 -1.597856757192E+01 -4.699489683648E+02 -1.783443449526E+01 -4.624006181132E+00 -2.040394617024E+01 -3.422904149426E+01 -4.042435702775E-01 2.748397275769E+03
 5.960899664639E-04 2.372317366687E-03 4.355713056740E-02 4.715605679185E-03 -4.520667314476E-03 2.553909780786E-02 -4.244373343708E-05 5.611558125097E-05 -5.105382664464E-03 4.519083901630E-05 3.528792871295E-05 9.597889723099E-04 -2.938803029668E-04 2.800456128868E-05 -3.498580347775E-03 -3.258019078278E+01 5.805244142698E+01 -5.538952041667E-01 -9.890852767618E-06 -4.218136105949E-04 1.395004661753E-02 -1.261418579218E-03 1.039807165955E-03 -2.565696744523E-03 4.366535129342E-04 -1.833665292060E-04 -5.159967085193E-04 -3.267118761149E-04 -2.432147182465E-04 -1.311539892517E-03 -4.222647527567E+02 -7.018997016262E+02 -5.252515775887E+00 2.669318454253E-03 2.747745660466E-03 -8.135746868427E-02 4.296220454839E+02 -7.177321325112E+02 7.075819788141E+00 -7.034926573651E+00 -1.484246666060E+03 -3.697416669227E+00 3.618899770933E+01 6.069477997562E+01 3.386603732799E-01 -4.269293392561E+00 2.785746311349E+03
 -3.133120743442E-02 8.902527700731E-03 4.572313986512E+00 6.914248751286E-02 -3.800207526328E-02 -8.791856348200E+00 1.810097168549E-03 4.374706893468E-04 1.097893467873E-04 4.800787189912E-04 -6.099458026726E-03 2.006164800285E-04 1.119569943287E-04 -4.879125568315E-04 3.641762533821E-05 -2.148867343201E-01 2.171183081676E-01 8.870601701137E+00 -5.013430393325E-03 3.726531950829E-03 -6.607923219003E-05 6.456365514079E-03 8.172765129443E-03 2.420567564867E-04 -3.880586482757E-04 1.491565495483E-04 -2.857105054947E-05 3.806286686312E-04 2.094071767427E-03 2.691525882772E-05 -1.806664721035E+01 -5.410124891348E+00 -8.086633007748E+01 2.667712450132E-01 1.774789505338E-01 -1.075772473968E+01 -1.575210116886E+01 6.896771212389E+00 -8.046920050267E+01 -4.654729827042E+00 -3.594968785388E+00 -8.200306993758E+01 -7.844806879436E-01 -7.970334756536E-01 1.125733487539E+01 3.772848484034E+01 2.639126393824E+00 1.891599157148E+02
 -8.437176176684E-05 -1.433977848039E-03 -6.680873077333E-03 -7.962069407831E-04 5.686282823386E-04 -3.884069271925E-02 -1.281643520041E-04 -6.497746095749E-04 3.011352237549E-03 -6.950593682415E-04 -4.240404703459E-04 2.352045716357E-03 -7.352828775849E-05 -2.300969305887E-04 1.391284943556E-03 7.729028048041E-04 1.547219221206E-03 -1.092510410443E-02 6.736923488107E-04 8.457064641336E-04 -2.449276885409E-03 1.529758632496E-03 -1.132684319393E-04 1.833323516218E-03 -1.693425983121E-04 3.970132394752E-04 -1.213092590683E-04 4.750394753283E-04 2.328762101187E-04 2.072153948149E-04 -8.684230220000E-03 -1.081908127651E-03 1.221651075257E-01 -1.444483347043E+03 -5.066612203543E+02 -3.121681193806E+01 7.815468706063E-04 -1.144451300711E-03 -5.619460622347E-02 -1.328032133587E+03 4.572412716992E+02 -1.090832785558E+01 5.057891811555E+01 -1.267045566500E+00 6.833686544555E-01 4.078315268416E+01 -3.011556255364E-01 2.819530031849E-01 3.060218562848E+03
 -3.829073075108E-05 8.070069107233E-04 -4.733946433516E-03 1.649945584411E-03 1.907774450314E-04 -4.618705027286E-03 -2.143383517271E-04 5.606358281679E-04 2.857836989028E-03 5.508396790163E-04 -4.171855426634E-05 2.992310612437E-03 3.014924597545E-04 3.623298870810E-04 1.276614036191E-03 -1.141423882962E-03 -1.808761992113E-03 -1.059204533295E-02 -2.627195434923E-04 -5.991820746696E-04 -2.707359686291E-03 3.785457802912E-06 4.062447754576E-04 2.836681910896E-03 1.964371528181E-05 -4.237348247657E-04 -2.336201542195E-04 -2.990523751645E-04 -1.008494395721E-04 3.057992886420E-04 -7.592321509766E-03 2.458185197312E-03 8.021230854281E-02 -5.079161846074E+02 -8.429782776406E+02 -1.570718513448E+01 -9.761646026132E-04 1.803623659718E-03 -3.036194975501E-02 4.439007834881E+02 -7.544690908443E+02 -2.593642702091E-01 -8.821138060299E+01 2.235561989884E+00 -1.814024445620E+00 7.396747793312E+01 -5.439903689567E-01 5.450714242061E-01 4.187581566462E+01 2.548241802857E+03
 -5.439340689732E-03 1.837169471344E-02 -3.965673043359E-04 -1.588451195416E-02 2.893513059714E-03 4.806057779484E+00 -1.872138071999E-03 1.099382612637E-02 3.561366445311E-05 1.207909064857E-02 5.619894761021E-03 1.603411529835E-04 3.934395035415E-03 6.437422717487E-03 4.445558988215E-05 -8.414937653848E-03 -3.240050099481E-02 -5.068317901467E-04 -8.111087835653E-03 -1.294952322939E-02 -1.209344148399E-04 -1.687782277246E-02 2.083225941047E-03 -3.029829210134E-05 2.047269621575E-03 -8.083850225966E-03 3.903629495681E-05 -7.645638290125E-03 -3.859747083696E-03 -3.436069051150E-05 3.210146509643E-01 4.130204260648E-02 -1.082380756538E+01 -2.980630509934E+01 -1.480297793018E+01 -7.003289797154E+01 -1.111085601691E-01 3.063899565306E-03 4.753243482552E+00 -1.129844728115E+01 -1.422071415536E-01 -7.871020086665E+01 1.491483964739E-01 -2.163543096063E-01 1.431547117052E+01 4.879362318383E-01 4.092677441847E-02 9.370257007747E+00 4.627093603520E+01 2.831156009745E+01 1.527449081876E+02
 -2.179124492732E-03 -1.345824379524E-03 -5.069918569900E-02 -1.253224325161E+03 4.513570364574E+02 -9.781963444037E+00 -7.819814942379E-04 7.081107758150E-04 6.277552628497E-03 4.156430292094E-04 8.440781512983E-04 -4.502194933259E-02 7.433109975182E-04 8.318582312427E-04 3.124087513158E-03 4.023820461554E+01 -5.377423830181E-01 1.759185823262E-01 1.972495071514E-04 -4.489142218468E-04 -9.928420278976E-03 -1.988324849358E+01 3.540423800985E+01 -2.860774870861E-01 -1.598491841444E-04 -6.514024368816E-04 1.088689928010E-03 -5.734602374837E-04 -3.293651547794E-04 1.263378680773E-03 1.409728307872E-03 2.230952098802E-04 -3.898066920000E-02 1.788750332768E-03 1.067385438952E-03 -5.171327432145E-02 1.777496930139E-03 -8.738895519541E-04 6.757553066805E-02 -1.129822998957E+03 -3.784468038608E+02 -1.013858893146E+01 -1.043841288475E-03 7.525504891734E-04 3.746406071448E-03 3.567360826514E+01 -2.603839451139E-01 2.645312712218E-01 -1.815507770890E+01 -3.293350785052E+01 -3.357638085488E-01 2.759313483036E+03
 -2.670584559038E-04 -2.701490704135E-03 -1.835681406954E-03 4.626186846749E+02 -7.480462599039E+02 4.697440696179E+00 -7.782278065917E-04 -1.016175322858E-03 -4.228904926481E-04 -2.183060680987E-03 -1.835567839771E-04 2.443912749535E-02 -5.321604905988E-04 5.649301360806E-05 2.751543043363E-03 6.748882891230E+01 -9.041880395048E-01 4.736617806879E-01 2.226811018146E-03 1.533426172591E-03 2.886924737529E-03 -3.335049504420E+01 5.939126042203E+01 -2.426073004122E-01 4.030917837529E-04 1.524133807911E-04 -2.125303487951E-03 -2.302602433402E-04 -7.808529436041E-04 5.613638977682E-03 -1.836892149638E-04 -7.079532317038E-04 -1.336442513263E-02 1.438634189935E-03 -9.987441821438E-04 -4.088561551380E-05 7.296736162748E-04 -3.190585397144E-03 -2.923589529152E-02 -3.804168068924E+02 -6.618747311611E+02 -3.943582473160E+00 -1.281894743010E-03 1.372860345452E-03 -4.825954861001E-03 -6.404565505322E+01 4.686928892407E-01 -5.733373237404E-01 3.259225369774E+01 5.912123515011E+01 4.157644775583E-01 -2.273202612108E+01 2.847686207634E+03
 -4.334336372243E-02 -4.818165499814E-03 4.690297605225E+00 -9.933601988139E+00 4.656937064401E+00 -8.331088698201E+01 -5.371840538170E-04 -1.787897560273E-03 7.243305923014E-05 -3.762070061299E-02 8.393529823223E-03 4.569573845077E+00 -3.030568244170E-04 8.678192761706E-04 3.604750268614E-05 3.649774491926E-02 3.685768176274E-02 8.419822449610E+00 5.723823828850E-03 3.198100156057E-03 -1.116001421025E-04 -1.231383366794E-01 1.618252425762E-01 9.664384564598E+00 7.579488056666E-04 -1.357141942512E-04 3.733841017092E-05 1.630203032654E-03 -2.903063846380E-03 1.780662573009E-05 -8.588818100716E-02 -1.793489879213E-02 4.151998053362E+00 -6.049797382700E-02 -9.518526868477E-02 5.312477009409E+00 1.596787400304E-01 3.314483522647E-02 -8.765684596653E+00 -9.942656729086E+00 -3.706805153816E+00 -8.112003942296E+01 -4.850311034052E-03 3.383502105786E-02 1.624656210277E-04 8.288872587052E-02 -7.327449817706E-02 8.101962290809E+00 -1.912393867644E-01 -1.716937950773E-01 1.036360812755E+01 2.309817970566E+01 -5.271223705183E+00 1.893404670156E+02