#BIOSYM hessian 1
@Type: Hessian Update
@Units
 distance: 	A
 energy: 	Kcal/Mol
#header
@natom 67

#label
C1      C2      C3      C4      C5      C6      C7      C8      C9      C10     C11     C12     C13     C14     C15     C16     C17     C18     C19     C20     C21     C22     C23     H24     C25     C26     C27     C28     C29     C30     C31     C32     C33     C34     C35     C36     C37     C38     C39     C40     C41     C42     C43     C44     C45     C46     C47     C48     C49     H50     H51     H52     H53     H54     H55     H56     H57     H58     O59     H60     H61     H62     H63     H64     H65     H66     H67

#element
C  C  C  C  C  C  C  C  C  C  C  C  C  C  C  C  C  C  C  C  C  C  C  H  C  C  C  C  C  C  C  C  C  C  C  C  C  C  C  C  C  C  C  C  C  C  C  C  C  H  H  H  H  H  H  H  H  H  O  H  H  H  H  H  H  H  H 

#matrix
201
 2.784342260829E+03
 -2.150524385917E+01 2.818692839244E+03
 0.000000000000E+00 0.000000000000E+00 0.000000000000E+00
 3.927252281550E+01 6.724093183475E+01 0.000000000000E+00 2.786933496955E+03
 -3.931980857533E-01 -4.720463700063E-01 0.000000000000E+00 -2.191129313206E+01 2.772250748769E+03
 0.000000000000E+00 0.000000000000E+00 0.000000000000E+00 0.000000000000E+00 0.000000000000E+00 0.000000000000E+00
 -1.966196597534E+01 3.464396954246E+01 0.000000000000E+00 8.308429750855E-03 1.562195830453E-01 0.000000000000E+00 2.814932001094E+03
 -3.370322948412E+01 5.958262817735E+01 0.000000000000E+00 -1.101610410721E-01 9.779295054702E-02 0.000000000000E+00 -3.113015027929E+01 2.817452015684E+03
 0.000000000000E+00 0.000000000000E+00 0.000000000000E+00 0.000000000000E+00 0.000000000000E+00 0.000000000000E+00 0.000000000000E+00 0.000000000000E+00 0.000000000000E+00
 3.913225436497E+01 -6.833453385812E+01 0.000000000000E+00 -1.961863369746E+01 3.532650493912E+01 0.000000000000E+00 4.164955718892E+01 7.204194682301E+01 0.000000000000E+00 2.788552558472E+03
 -4.553188715278E-01 5.935763647630E-01 0.000000000000E+00 -3.297906387163E+01 5.906833238089E+01 0.000000000000E+00 -5.216561662751E-01 -8.324846132125E-01 0.000000000000E+00 -1.833205744024E+01 2.833865344500E+03
 0.000000000000E+00 0.000000000000E+00 0.000000000000E+00 0.000000000000E+00 0.000000000000E+00 0.000000000000E+00 0.000000000000E+00 0.000000000000E+00 0.000000000000E+00 0.000000000000E+00 0.000000000000E+00 0.000000000000E+00
 -1.852773104423E-03 4.715154249663E-03 0.000000000000E+00 -4.094833295152E-02 3.872368240418E-02 0.000000000000E+00 4.215651047528E+01 -7.320861258605E+01 0.000000000000E+00 -2.151275487152E+01 3.822540942464E+01 0.000000000000E+00 2.637638397851E+03
 3.164271136926E-03 -1.952227875400E-02 0.000000000000E+00 -3.611500419509E-02 -8.133110294204E-03 0.000000000000E+00 4.432717751290E-01 -7.594742617498E-01 0.000000000000E+00 -3.540516725122E+01 6.292195062179E+01 0.000000000000E+00 -2.219569678845E+02 2.899345287975E+03
 0.000000000000E+00 0.000000000000E+00 0.000000000000E+00 0.000000000000E+00 0.000000000000E+00 0.000000000000E+00 0.000000000000E+00 0.000000000000E+00 0.000000000000E+00 0.000000000000E+00 0.000000000000E+00 0.000000000000E+00 0.000000000000E+00 0.000000000000E+00 0.000000000000E+00
 -1.231673301176E+03 4.462032718147E+02 0.000000000000E+00 -4.639046391497E+02 -1.053114294923E+01 0.000000000000E+00 -5.879937513619E-02 8.552867185583E-02 0.000000000000E+00 -1.598550764290E-01 -1.713739742888E-01 0.000000000000E+00 3.356657546498E-03 5.478535505922E-02 0.000000000000E+00 2.821544311942E+03
 4.408358681808E+02 -7.397329689419E+02 0.000000000000E+00 -9.770111121618E+00 -1.433302903001E+03 0.000000000000E+00 6.759396384983E-03 -2.271670773376E-01 0.000000000000E+00 -2.914015445868E-01 2.226320177333E-01 0.000000000000E+00 -4.632028180133E-02 -1.576729341677E-02 0.000000000000E+00 3.057316159625E+00 2.780597409823E+03
 0.000000000000E+00 0.000000000000E+00 0.000000000000E+00 0.000000000000E+00 0.000000000000E+00 0.000000000000E+00 0.000000000000E+00 0.000000000000E+00 0.000000000000E+00 0.000000000000E+00 0.000000000000E+00 0.000000000000E+00 0.000000000000E+00 0.000000000000E+00 0.000000000000E+00 0.000000000000E+00 0.000000000000E+00 0.000000000000E+00
 -1.192232587283E+03 -4.134295980836E+02 0.000000000000E+00 1.189263719563E-01 -3.855661189904E-01 0.000000000000E+00 -1.265029446576E+03 4.468171466133E+02 0.000000000000E+00 -4.855797433964E+02 -1.202929160516E+01 0.000000000000E+00 -1.638066060639E-01 -2.648236914191E-01 0.000000000000E+00 -1.953510734202E+01 -3.283871479755E+01 0.000000000000E+00 2.822080713170E+03
 -4.130397303674E+02 -7.026859748414E+02 0.000000000000E+00 -1.167248330941E-01 -3.303331181024E-01 0.000000000000E+00 4.486248965507E+02 -7.455035135076E+02 0.000000000000E+00 -1.429818227527E+01 -1.513085389654E+03 0.000000000000E+00 -2.724205384955E-01 1.724523533658E-01 0.000000000000E+00 3.453299625680E+01 5.847363016071E+01 0.000000000000E+00 -2.387154664794E+01 2.843150470040E+03
 0.000000000000E+00 0.000000000000E+00 0.000000000000E+00 0.000000000000E+00 0.000000000000E+00 0.000000000000E+00 0.000000000000E+00 0.000000000000E+00 0.000000000000E+00 0.000000000000E+00 0.000000000000E+00 0.000000000000E+00 0.000000000000E+00 0.000000000000E+00 0.000000000000E+00 0.000000000000E+00 0.000000000000E+00 0.000000000000E+00 0.000000000000E+00 0.000000000000E+00 0.000000000000E+00
 3.432730969383E-02 6.133208531183E-02 0.000000000000E+00 -1.220183651740E+03 -4.202677182434E+02 0.000000000000E+00 8.512727768320E-02 7.077910730114E-02 0.000000000000E+00 -1.225827965143E+03 4.405874788919E+02 0.000000000000E+00 -1.618030959127E-02 4.103875091674E-03 0.000000000000E+00 3.752592419340E+01 -3.673438209346E-01 0.000000000000E+00 4.123052111740E+01 -5.275693549057E-01 0.000000000000E+00 2.807525402853E+03
 6.381272933002E-02 6.236359562973E-03 0.000000000000E+00 -4.229459767152E+02 -7.058006425889E+02 0.000000000000E+00 -5.440129428910E-02 3.760262484995E-02 0.000000000000E+00 4.387956390214E+02 -7.361315061545E+02 0.000000000000E+00 -2.985979439276E-03 -4.120283368960E-02 0.000000000000E+00 -6.665350486453E+01 4.754806639759E-01 0.000000000000E+00 7.025830564557E+01 -5.850779838278E-01 0.000000000000E+00 3.836292855285E-01 2.808759982028E+03
 0.000000000000E+00 0.000000000000E+00 0.000000000000E+00 0.000000000000E+00 0.000000000000E+00 0.000000000000E+00 0.000000000000E+00 0.000000000000E+00 0.000000000000E+00 0.000000000000E+00 0.000000000000E+00 0.000000000000E+00 0.000000000000E+00 0.000000000000E+00 0.000000000000E+00 0.000000000000E+00 0.000000000000E+00 0.000000000000E+00 0.000000000000E+00 0.000000000000E+00 0.000000000000E+00 0.000000000000E+00 0.000000000000E+00 0.000000000000E+00
 7.640141561824E-03 1.729786688399E-02 0.000000000000E+00 3.262752233782E-02 -8.443573195796E-02 0.000000000000E+00 -1.195611379949E+03 -4.078519993273E+02 0.000000000000E+00 5.935797666991E-02 -9.004413745613E-02 0.000000000000E+00 -5.222361548805E+02 8.597252130748E+00 0.000000000000E+00 -9.926106069042E-03 6.560629084250E-02 0.000000000000E+00 -1.976848137030E+01 -3.389737590159E+01 0.000000000000E+00 -1.108043073392E-02 6.032529653246E-03 0.000000000000E+00 2.775008831845E+03
 -4.047729500994E-02 -1.667653338419E-03 0.000000000000E+00 5.542972392442E-02 -4.733165153630E-03 0.000000000000E+00 -4.166276935541E+02 -7.046418221006E+02 0.000000000000E+00 -1.238338111914E-01 -2.311752235783E-02 0.000000000000E+00 1.021007105151E+01 -1.635996171199E+03 0.000000000000E+00 -3.720948836969E-02 8.680395802539E-02 0.000000000000E+00 3.478857108084E+01 5.972405076178E+01 0.000000000000E+00 -8.284361365680E-03 -6.812863947064E-04 0.000000000000E+00 -2.991604357179E+01 2.957372800523E+03
 0.000000000000E+00 0.000000000000E+00 0.000000000000E+00 0.000000000000E+00 0.000000000000E+00 0.000000000000E+00 0.000000000000E+00 0.000000000000E+00 0.000000000000E+00 0.000000000000E+00 0.000000000000E+00 0.000000000000E+00 0.000000000000E+00 0.000000000000E+00 0.000000000000E+00 0.000000000000E+00 0.000000000000E+00 0.000000000000E+00 0.000000000000E+00 0.000000000000E+00 0.000000000000E+00 0.000000000000E+00 0.000000000000E+00 0.000000000000E+00 0.000000000000E+00 0.000000000000E+00 0.000000000000E+00
 -3.112054478609E-02 -1.565998408798E-02 0.000000000000E+00 1.032743690682E-01 4.261977339018E-02 0.000000000000E+00 -1.813116835906E-01 -4.375526663476E-02 0.000000000000E+00 -1.194849931344E+03 -4.172242764897E+02 0.000000000000E+00 -1.336976542130E+03 4.942589917727E+02 0.000000000000E+00 -5.835667318506E-02 5.983190469192E-02 0.000000000000E+00 3.916390685351E+01 -3.138068990014E-01 0.000000000000E+00 -1.941015008667E+01 -3.273150408046E+01 0.000000000000E+00 4.929857314126E+01 3.659081824984E-01 0.000000000000E+00 2.882689096460E+03
 4.653041607878E-02 -2.785878230207E-04 0.000000000000E+00 -1.711547776954E-03 1.039215348079E-01 0.000000000000E+00 -3.174034757036E-03 2.134479486359E-01 0.000000000000E+00 -4.088592927188E+02 -7.047364004416E+02 0.000000000000E+00 4.924055730943E+02 -8.207715280189E+02 0.000000000000E+00 -7.426159050297E-02 -4.970205444543E-02 0.000000000000E+00 -6.866404538939E+01 4.803217543310E-01 0.000000000000E+00 3.449338573165E+01 5.812672578998E+01 0.000000000000E+00 8.145756737742E+01 6.277142482905E-01 0.000000000000E+00 -9.475341494535E+01 2.845773698330E+03
 0.000000000000E+00 0.000000000000E+00 0.000000000000E+00 0.000000000000E+00 0.000000000000E+00 0.000000000000E+00 0.000000000000E+00 0.000000000000E+00 0.000000000000E+00 0.000000000000E+00 0.000000000000E+00 0.000000000000E+00 0.000000000000E+00 0.000000000000E+00 0.000000000000E+00 0.000000000000E+00 0.000000000000E+00 0.000000000000E+00 0.000000000000E+00 0.000000000000E+00 0.000000000000E+00 0.000000000000E+00 0.000000000000E+00 0.000000000000E+00 0.000000000000E+00 0.000000000000E+00 0.000000000000E+00 0.000000000000E+00 0.000000000000E+00 0.000000000000E+00
 4.025918849439E-02 3.342838981006E-02 0.000000000000E+00 8.310780139686E-02 -3.402453011641E-02 0.000000000000E+00 4.819388459827E-02 5.829173217197E-02 0.000000000000E+00 6.660790191803E-03 4.976331405322E-02 0.000000000000E+00 2.355042660897E-02 3.882789924846E-02 0.000000000000E+00 -1.260501724737E-01 1.508135739395E-01 0.000000000000E+00 -3.424829011454E-05 -8.621501658040E-02 0.000000000000E+00 -5.182830075314E-02 1.085456309788E-03 0.000000000000E+00 -1.755552211725E-02 -1.703786241451E-02 0.000000000000E+00 -2.018537075765E-02 -4.828335020110E-02 0.000000000000E+00 2.807660946268E+03
 -3.805582664517E-01 -3.586583539607E-02 0.000000000000E+00 -7.518539203785E-01 6.614238947127E-01 0.000000000000E+00 7.861887388419E-02 -4.024092159738E-01 0.000000000000E+00 -1.652167335846E-01 -9.894865526639E-02 0.000000000000E+00 -3.459606873157E-02 -1.631964487979E-01 0.000000000000E+00 1.033278038143E+00 -5.652540785641E-01 0.000000000000E+00 2.677702335608E-01 3.374249812511E-01 0.000000000000E+00 3.391287170533E-01 -2.718973510067E-01 0.000000000000E+00 1.275795509157E-01 1.839528002327E-01 0.000000000000E+00 1.407841702665E-01 1.252952365929E-01 0.000000000000E+00 -3.171550140990E-01 2.801843814392E+03
 0.000000000000E+00 0.000000000000E+00 0.000000000000E+00 0.000000000000E+00 0.000000000000E+00 0.000000000000E+00 0.000000000000E+00 0.000000000000E+00 0.000000000000E+00 0.000000000000E+00 0.000000000000E+00 0.000000000000E+00 0.000000000000E+00 0.000000000000E+00 0.000000000000E+00 0.000000000000E+00 0.000000000000E+00 0.000000000000E+00 0.000000000000E+00 0.000000000000E+00 0.000000000000E+00 0.000000000000E+00 0.000000000000E+00 0.000000000000E+00 0.000000000000E+00 0.000000000000E+00 0.000000000000E+00 0.000000000000E+00 0.000000000000E+00 0.000000000000E+00 0.000000000000E+00 0.000000000000E+00 0.000000000000E+00
 -9.754434455922E-02 -1.920484918829E-02 0.000000000000E+00 -2.364401116344E-01 1.755181247199E-01 0.000000000000E+00 7.225987232636E-02 -1.297488917954E-01 0.000000000000E+00 -4.361921369619E-02 4.835185293390E-03 0.000000000000E+00 6.516997659446E-03 -3.914914494550E-02 0.000000000000E+00 2.786993747582E-01 -2.180946767945E-01 0.000000000000E+00 7.161968550950E-02 6.405768169235E-02 0.000000000000E+00 1.040179018758E-01 -9.801185905596E-02 0.000000000000E+00 2.986332989243E-02 5.573344471774E-02 0.000000000000E+00 2.821485947763E-02 1.856857363279E-02 0.000000000000E+00 4.229236340033E+01 7.121456945015E+01 0.000000000000E+00 2.786518873333E+03
 -2.611771962275E-01 -3.846936655863E-02 0.000000000000E+00 -4.879630252727E-01 4.302578530519E-01 0.000000000000E+00 3.052382629023E-02 -2.955921174684E-01 0.000000000000E+00 -1.062026960236E-01 -7.729239318948E-02 0.000000000000E+00 -3.196630701442E-02 -1.238260824890E-01 0.000000000000E+00 7.841381488105E-01 -4.798250074006E-01 0.000000000000E+00 1.628555959227E-01 2.573266066243E-01 0.000000000000E+00 2.503325920537E-01 -1.731077137704E-01 0.000000000000E+00 8.681959902733E-02 1.244979519038E-01 0.000000000000E+00 9.254798933648E-02 1.068723863568E-01 0.000000000000E+00 -4.733116901320E-01 -3.664260058537E+00 0.000000000000E+00 2.773748926635E+02 2.855653575808E+03
 0.000000000000E+00 0.000000000000E+00 0.000000000000E+00 0.000000000000E+00 0.000000000000E+00 0.000000000000E+00 0.000000000000E+00 0.000000000000E+00 0.000000000000E+00 0.000000000000E+00 0.000000000000E+00 0.000000000000E+00 0.000000000000E+00 0.000000000000E+00 0.000000000000E+00 0.000000000000E+00 0.000000000000E+00 0.000000000000E+00 0.000000000000E+00 0.000000000000E+00 0.000000000000E+00 0.000000000000E+00 0.000000000000E+00 0.000000000000E+00 0.000000000000E+00 0.000000000000E+00 0.000000000000E+00 0.000000000000E+00 0.000000000000E+00 0.000000000000E+00 0.000000000000E+00 0.000000000000E+00 0.000000000000E+00 0.000000000000E+00 0.000000000000E+00 0.000000000000E+00
 -2.040389258909E+01 -3.431382685686E+01 0.000000000000E+00 3.804317208807E+01 -6.031975669733E-01 0.000000000000E+00 -7.320555619839E-02 -1.461345040190E-01 0.000000000000E+00 -9.149557623358E-02 5.394419646436E-02 0.000000000000E+00 -5.115776362783E-02 -5.238292754020E-02 0.000000000000E+00 -1.244926116834E+03 -4.355224666245E+02 0.000000000000E+00 1.524912388914E-01 1.469701313654E-01 0.000000000000E+00 -6.239585183984E-03 -1.067467298894E-01 0.000000000000E+00 8.652945826347E-02 4.120225205209E-02 0.000000000000E+00 4.550059901294E-02 3.900807122738E-02 0.000000000000E+00 -1.937189039659E+01 3.312502143270E+01 0.000000000000E+00 -4.519737178486E-01 -1.086842166106E+00 0.000000000000E+00 2.765552103328E+03
 3.633527339639E+01 6.034426122720E+01 0.000000000000E+00 -6.815782366470E+01 1.167441757987E+00 0.000000000000E+00 1.776869254758E-01 -2.042263844214E-03 0.000000000000E+00 -1.577562220437E-01 1.446526081358E-01 0.000000000000E+00 -9.454891804382E-02 3.269197267835E-03 0.000000000000E+00 -4.397596676083E+02 -7.231386488651E+02 0.000000000000E+00 6.373239692751E-02 6.524427877951E-02 0.000000000000E+00 5.671058427042E-03 -2.055114358189E-01 0.000000000000E+00 3.616912284786E-02 1.158332494589E-01 0.000000000000E+00 1.322061949673E-01 -1.055791769353E-01 0.000000000000E+00 -3.275856200244E+01 5.769489886956E+01 0.000000000000E+00 7.612037460206E-01 8.599871539346E-01 0.000000000000E+00 1.897453357745E+01 2.812099625409E+03
 0.000000000000E+00 0.000000000000E+00 0.000000000000E+00 0.000000000000E+00 0.000000000000E+00 0.000000000000E+00 0.000000000000E+00 0.000000000000E+00 0.000000000000E+00 0.000000000000E+00 0.000000000000E+00 0.000000000000E+00 0.000000000000E+00 0.000000000000E+00 0.000000000000E+00 0.000000000000E+00 0.000000000000E+00 0.000000000000E+00 0.000000000000E+00 0.000000000000E+00 0.000000000000E+00 0.000000000000E+00 0.000000000000E+00 0.000000000000E+00 0.000000000000E+00 0.000000000000E+00 0.000000000000E+00 0.000000000000E+00 0.000000000000E+00 0.000000000000E+00 0.000000000000E+00 0.000000000000E+00 0.000000000000E+00 0.000000000000E+00 0.000000000000E+00 0.000000000000E+00 0.000000000000E+00 0.000000000000E+00 0.000000000000E+00
 -6.985529845521E-02 -5.580597052072E-02 0.000000000000E+00 -1.916357215377E+01 -3.124822729526E+01 0.000000000000E+00 4.566890309638E-02 -1.455379141426E-01 0.000000000000E+00 -5.241595181601E-02 -2.503035334168E-02 0.000000000000E+00 -2.093818288799E-02 -5.451725348639E-02 0.000000000000E+00 3.419839745061E-01 -2.384884462997E-01 0.000000000000E+00 5.367912047019E-02 1.064865182123E-01 0.000000000000E+00 1.544875150659E-01 -4.950718828795E-02 0.000000000000E+00 2.741002886271E-02 7.411557849069E-02 0.000000000000E+00 5.380814526604E-02 3.805917756260E-02 0.000000000000E+00 3.906019083663E+01 -7.025965017269E+01 0.000000000000E+00 -2.308408988139E+01 4.027229503754E+01 0.000000000000E+00 4.008566362308E+01 6.737534935424E+01 0.000000000000E+00 2.767854916041E+03
 1.170623795921E-01 2.564114282498E-02 0.000000000000E+00 3.394046169009E+01 5.534892537280E+01 0.000000000000E+00 4.372899858893E-02 1.306904238148E-01 0.000000000000E+00 5.120095209176E-02 7.018110153554E-02 0.000000000000E+00 3.894597048991E-02 7.231597247850E-02 0.000000000000E+00 -5.928805426334E-01 4.600848947624E-02 0.000000000000E+00 -5.562145775075E-02 -1.705683696411E-01 0.000000000000E+00 -1.362019995459E-01 6.138726407955E-02 0.000000000000E+00 -3.220551539363E-02 -6.150734984023E-02 0.000000000000E+00 -4.972051661980E-02 -6.096080612466E-02 0.000000000000E+00 -4.092661777127E-01 1.552402853225E+00 0.000000000000E+00 -4.185185235152E+01 7.446978103022E+01 0.000000000000E+00 7.366319748962E-01 1.965838575732E-01 0.000000000000E+00 -3.954792627268E+01 2.762243304254E+03
 0.000000000000E+00 0.000000000000E+00 0.000000000000E+00 0.000000000000E+00 0.000000000000E+00 0.000000000000E+00 0.000000000000E+00 0.000000000000E+00 0.000000000000E+00 0.000000000000E+00 0.000000000000E+00 0.000000000000E+00 0.000000000000E+00 0.000000000000E+00 0.000000000000E+00 0.000000000000E+00 0.000000000000E+00 0.000000000000E+00 0.000000000000E+00 0.000000000000E+00 0.000000000000E+00 0.000000000000E+00 0.000000000000E+00 0.000000000000E+00 0.000000000000E+00 0.000000000000E+00 0.000000000000E+00 0.000000000000E+00 0.000000000000E+00 0.000000000000E+00 0.000000000000E+00 0.000000000000E+00 0.000000000000E+00 0.000000000000E+00 0.000000000000E+00 0.000000000000E+00 0.000000000000E+00 0.000000000000E+00 0.000000000000E+00 0.000000000000E+00 0.000000000000E+00 0.000000000000E+00
 3.294407833143E-02 -3.597353650477E-02 0.000000000000E+00 4.678645262820E-02 -3.096307932284E-02 0.000000000000E+00 -6.336768055074E-03 3.095286858859E-02 0.000000000000E+00 -1.969144519266E-02 1.272553656592E-02 0.000000000000E+00 -1.663350783789E-02 1.050785004687E-02 0.000000000000E+00 -1.035345131027E-01 2.064143065383E-01 0.000000000000E+00 6.496543646487E-03 -1.788367826807E-02 0.000000000000E+00 -1.543664392681E-02 7.285555713278E-03 0.000000000000E+00 -6.835624672132E-03 5.991058030692E-03 0.000000000000E+00 1.696224720878E-02 -2.163623617435E-02 0.000000000000E+00 -1.229338844248E+03 4.374789881003E+02 0.000000000000E+00 -5.078364452725E+02 -1.887413429751E+01 0.000000000000E+00 3.636319384624E-01 -3.787869632631E-01 0.000000000000E+00 3.362003960639E-01 4.601903463044E-01 0.000000000000E+00 2.846490852786E+03
 3.475572793591E-01 5.970822173053E-02 0.000000000000E+00 6.563485244552E-01 -6.174023850861E-01 0.000000000000E+00 -4.797448121558E-02 3.852059734842E-01 0.000000000000E+00 1.611619722532E-01 9.431127828647E-02 0.000000000000E+00 5.026045807454E-02 1.616569380488E-01 0.000000000000E+00 -1.040887931992E+00 5.164232219085E-01 0.000000000000E+00 -2.406782314227E-01 -3.404921146822E-01 0.000000000000E+00 -3.322401445337E-01 2.427704333340E-01 0.000000000000E+00 -1.197102739518E-01 -1.751048288432E-01 0.000000000000E+00 -1.382562927387E-01 -1.292939344951E-01 0.000000000000E+00 4.391037572492E+02 -7.346399557173E+02 0.000000000000E+00 -2.820920853548E+01 -1.539781041720E+03 0.000000000000E+00 1.307185124488E+00 -7.556722124912E-01 0.000000000000E+00 9.225331832607E-01 -1.147095355299E+00 0.000000000000E+00 2.272994010368E+01 2.887487182064E+03
 0.000000000000E+00 0.000000000000E+00 0.000000000000E+00 0.000000000000E+00 0.000000000000E+00 0.000000000000E+00 0.000000000000E+00 0.000000000000E+00 0.000000000000E+00 0.000000000000E+00 0.000000000000E+00 0.000000000000E+00 0.000000000000E+00 0.000000000000E+00 0.000000000000E+00 0.000000000000E+00 0.000000000000E+00 0.000000000000E+00 0.000000000000E+00 0.000000000000E+00 0.000000000000E+00 0.000000000000E+00 0.000000000000E+00 0.000000000000E+00 0.000000000000E+00 0.000000000000E+00 0.000000000000E+00 0.000000000000E+00 0.000000000000E+00 0.000000000000E+00 0.000000000000E+00 0.000000000000E+00 0.000000000000E+00 0.000000000000E+00 0.000000000000E+00 0.000000000000E+00 0.000000000000E+00 0.000000000000E+00 0.000000000000E+00 0.000000000000E+00 0.000000000000E+00 0.000000000000E+00 0.000000000000E+00 0.000000000000E+00 0.000000000000E+00
 1.728688193251E-01 9.641093894925E-02 0.000000000000E+00 3.022798830162E-01 2.718781516559E-01 0.000000000000E+00 1.952070198895E-02 5.105414850080E-02 0.000000000000E+00 6.193904123067E-02 -6.133847137894E-02 0.000000000000E+00 -2.826040976727E-02 -2.652853132831E-02 0.000000000000E+00 -2.001226517111E+01 3.501728346988E+01 0.000000000000E+00 -1.051449508261E-01 5.792581005559E-04 0.000000000000E+00 -1.292347420893E-04 5.170054085911E-02 0.000000000000E+00 -1.746615305272E-02 2.278369106881E-02 0.000000000000E+00 4.017455347016E-02 3.780773763335E-02 0.000000000000E+00 -1.224473267611E+03 -4.229417179035E+02 0.000000000000E+00 -7.177382067002E-02 3.257565999439E-01 0.000000000000E+00 -1.166487159956E+03 4.269088342930E+02 0.000000000000E+00 -4.722406421479E+02 -1.158560671285E+01 0.000000000000E+00 -1.987270952156E+01 -3.428409897507E+01 0.000000000000E+00 2.748038408106E+03
 -1.854738056163E-01 1.354607108709E-01 0.000000000000E+00 3.219693609557E-01 -1.233716616190E-01 0.000000000000E+00 5.568473686707E-02 -1.899093679576E-02 0.000000000000E+00 6.715744720119E-02 -1.013901397067E-02 0.000000000000E+00 7.363655150536E-02 1.139964448473E-02 0.000000000000E+00 -3.279515261766E+01 5.728827244633E+01 0.000000000000E+00 -5.354534659459E-03 -9.677407868684E-02 0.000000000000E+00 7.969914412794E-03 3.559511111850E-02 0.000000000000E+00 -3.042097447725E-02 -1.554906416029E-02 0.000000000000E+00 -4.981818500771E-02 -8.921689379215E-03 0.000000000000E+00 -4.261972996995E+02 -7.112702529504E+02 0.000000000000E+00 2.426718684221E-02 1.022478833175E-01 0.000000000000E+00 4.284407849509E+02 -7.225715277313E+02 0.000000000000E+00 -1.605345078106E+00 -1.497798446571E+03 0.000000000000E+00 3.477411781214E+01 5.927628518549E+01 0.000000000000E+00 -7.522583824285E-02 2.814923854017E+03
 0.000000000000E+00 0.000000000000E+00 0.000000000000E+00 0.000000000000E+00 0.000000000000E+00 0.000000000000E+00 0.000000000000E+00 0.000000000000E+00 0.000000000000E+00 0.000000000000E+00 0.000000000000E+00 0.000000000000E+00 0.000000000000E+00 0.000000000000E+00 0.000000000000E+00 0.000000000000E+00 0.000000000000E+00 0.000000000000E+00 0.000000000000E+00 0.000000000000E+00 0.000000000000E+00 0.000000000000E+00 0.000000000000E+00 0.000000000000E+00 0.000000000000E+00 0.000000000000E+00 0.000000000000E+00 0.000000000000E+00 0.000000000000E+00 0.000000000000E+00 0.000000000000E+00 0.000000000000E+00 0.000000000000E+00 0.000000000000E+00 0.000000000000E+00 0.000000000000E+00 0.000000000000E+00 0.000000000000E+00 0.000000000000E+00 0.000000000000E+00 0.000000000000E+00 0.000000000000E+00 0.000000000000E+00 0.000000000000E+00 0.000000000000E+00 0.000000000000E+00 0.000000000000E+00 0.000000000000E+00
 1.840657445213E-01 6.176116071296E-02 0.000000000000E+00 4.356387635313E-01 -3.233266280233E-01 0.000000000000E+00 -7.793516116442E-02 2.355769200496E-01 0.000000000000E+00 9.667330673844E-02 3.291316399609E-02 0.000000000000E+00 1.499738527350E-02 8.302735234407E-02 0.000000000000E+00 -5.313309898024E-01 2.876069812500E-01 0.000000000000E+00 -1.366830500744E-01 -1.668721273765E-01 0.000000000000E+00 -2.031343721555E-01 1.547341105653E-01 0.000000000000E+00 -6.204082656175E-02 -1.112691613045E-01 0.000000000000E+00 -7.823421835918E-02 -4.815661121807E-02 0.000000000000E+00 7.688252294403E-02 9.163411020480E-01 0.000000000000E+00 -1.508694113573E+03 -5.257864748034E+02 0.000000000000E+00 6.257845549198E-01 -9.268619831886E-01 0.000000000000E+00 -1.272944717128E+03 4.373920155476E+02 0.000000000000E+00 4.811466105707E+01 -2.339107266510E+00 0.000000000000E+00 3.973768737240E+01 1.397579829829E-01 0.000000000000E+00 3.071890776325E+03
 2.895924342285E-02 -5.443431204403E-03 0.000000000000E+00 6.224765534121E-02 -2.316741313844E-02 0.000000000000E+00 -2.970360846573E-02 3.304816346547E-02 0.000000000000E+00 3.800100748254E-03 -5.245111058640E-03 0.000000000000E+00 -1.333997150025E-02 1.765107822323E-03 0.000000000000E+00 -3.106090901836E-02 9.633470990786E-02 0.000000000000E+00 -1.909369061075E-02 3.166016672975E-03 0.000000000000E+00 -2.144540819875E-02 2.246604019890E-02 0.000000000000E+00 -3.446333989641E-03 -1.291493396912E-02 0.000000000000E+00 -2.079637743818E-04 6.033820020824E-03 0.000000000000E+00 -1.246946624993E-01 -3.251728664821E-01 0.000000000000E+00 -5.359463110934E+02 -8.635418105523E+02 0.000000000000E+00 1.471141658377E-01 -4.180584958905E-01 0.000000000000E+00 4.228955022888E+02 -7.309556788333E+02 0.000000000000E+00 -8.636153970887E+01 2.582417918737E+00 0.000000000000E+00 7.201373716472E+01 -1.675430551669E-01 0.000000000000E+00 8.858819295860E+01 2.542132548564E+03
 0.000000000000E+00 0.000000000000E+00 0.000000000000E+00 0.000000000000E+00 0.000000000000E+00 0.000000000000E+00 0.000000000000E+00 0.000000000000E+00 0.000000000000E+00 0.000000000000E+00 0.000000000000E+00 0.000000000000E+00 0.000000000000E+00 0.000000000000E+00 0.000000000000E+00 0.000000000000E+00 0.000000000000E+00 0.000000000000E+00 0.000000000000E+00 0.000000000000E+00 0.000000000000E+00 0.000000000000E+00 0.000000000000E+00 0.000000000000E+00 0.000000000000E+00 0.000000000000E+00 0.000000000000E+00 0.000000000000E+00 0.000000000000E+00 0.000000000000E+00 0.000000000000E+00 0.000000000000E+00 0.000000000000E+00 0.000000000000E+00 0.000000000000E+00 0.000000000000E+00 0.000000000000E+00 0.000000000000E+00 0.000000000000E+00 0.000000000000E+00 0.000000000000E+00 0.000000000000E+00 0.000000000000E+00 0.000000000000E+00 0.000000000000E+00 0.000000000000E+00 0.000000000000E+00 0.000000000000E+00 0.000000000000E+00 0.000000000000E+00 0.000000000000E+00
 1.659717223559E-02 3.967475585707E-02 0.000000000000E+00 -1.223603254733E+03 4.476018846371E+02 0.000000000000E+00 5.791612257535E-03 1.110512809487E-01 0.000000000000E+00 1.081290437794E-01 3.408519727684E-02 0.000000000000E+00 1.003291641430E-03 8.208134190320E-03 0.000000000000E+00 4.021398423527E+01 -2.868838851210E-01 0.000000000000E+00 -5.061468798997E-02 -1.451121065361E-01 0.000000000000E+00 -2.016971125458E+01 3.590459658439E+01 0.000000000000E+00 -2.197370770900E-02 -2.647240871091E-02 0.000000000000E+00 -9.065081216825E-03 4.891868839237E-02 0.000000000000E+00 -9.878303752760E-02 3.435251894004E-01 0.000000000000E+00 9.531363345718E-02 2.093898822567E-01 0.000000000000E+00 8.747044410105E-01 -7.698617508290E-02 0.000000000000E+00 -1.139755240870E+03 -3.887051249827E+02 0.000000000000E+00 -7.026938339069E-02 -2.386110442391E-01 0.000000000000E+00 3.611793438094E+01 -3.989043992586E-01 0.000000000000E+00 -1.807900378399E+01 -3.242350378946E+01 0.000000000000E+00 2.729703994890E+03
 -7.143432390946E-02 -1.556111812796E-02 0.000000000000E+00 4.573010588208E+02 -7.461071118023E+02 0.000000000000E+00 -7.908706268546E-02 4.704706636960E-03 0.000000000000E+00 -3.781362073226E-02 3.735781161939E-02 0.000000000000E+00 2.599800518319E-02 1.837575655165E-02 0.000000000000E+00 6.704314497517E+01 -4.641889325157E-01 0.000000000000E+00 9.143143811263E-02 5.783809501366E-02 0.000000000000E+00 -3.325656681233E+01 5.901018595380E+01 0.000000000000E+00 1.322038377707E-03 -3.613235772284E-02 0.000000000000E+00 -8.547253927273E-02 -4.963009507214E-02 0.000000000000E+00 -2.034355646609E-03 -1.067895768484E-01 0.000000000000E+00 -3.090969309853E-02 -3.877323548021E-02 0.000000000000E+00 -9.465574898354E-02 -6.974378483436E-01 0.000000000000E+00 -3.874673509308E+02 -6.679056017320E+02 0.000000000000E+00 -6.708165094048E-02 1.052127762660E-01 0.000000000000E+00 -6.502296675566E+01 6.218343531822E-01 0.000000000000E+00 3.188741999506E+01 5.750709289419E+01 0.000000000000E+00 -1.111319414828E+01 2.824032283966E+03
 0.000000000000E+00 0.000000000000E+00 0.000000000000E+00 0.000000000000E+00 0.000000000000E+00 0.000000000000E+00 0.000000000000E+00 0.000000000000E+00 0.000000000000E+00 0.000000000000E+00 0.000000000000E+00 0.000000000000E+00 0.000000000000E+00 0.000000000000E+00 0.000000000000E+00 0.000000000000E+00 0.000000000000E+00 0.000000000000E+00 0.000000000000E+00 0.000000000000E+00 0.000000000000E+00 0.000000000000E+00 0.000000000000E+00 0.000000000000E+00 0.000000000000E+00 0.000000000000E+00 0.000000000000E+00 0.000000000000E+00 0.000000000000E+00 0.000000000000E+00 0.000000000000E+00 0.000000000000E+00 0.000000000000E+00 0.000000000000E+00 0.000000000000E+00 0.000000000000E+00 0.000000000000E+00 0.000000000000E+00 0.000000000000E+00 0.000000000000E+00 0.000000000000E+00 0.000000000000E+00 0.000000000000E+00 0.000000000000E+00 0.000000000000E+00 0.000000000000E+00 0.000000000000E+00 0.000000000000E+00 0.000000000000E+00 0.000000000000E+00 0.000000000000E+00 0.000000000000E+00 0.000000000000E+00 0.000000000000E+00