#BIOSYM hessian 1
@Type: Hessian Update
@Units
 distance: 	A
 energy: 	Kcal/Mol
#header
@natom 67

#label
C1      C2      C3      C4      C5      C6      C7      C8      C9      C10     C11     C12     C13     C14     C15     C16     C17     C18     C19     C20     C21     C22     C23     H24     C25     C26     C27     C28     C29     C30     C31     C32     C33     C34     C35     C36     C37     C38     C39     C40     C41     C42     C43     C44     C45     C46     C47     C48     C49     H50     H51     H52     H53     H54     H55     H56     H57     H58     H59     H60     H61     H62     H63     H64     H65     H66     O67

#element
C  C  C  C  C  C  C  C  C  C  C  C  C  C  C  C  C  C  C  C  C  C  C  H  C  C  C  C  C  C  C  C  C  C  C  C  C  C  C  C  C  C  C  C  C  C  C  C  C  H  H  H  H  H  H  H  H  H  H  H  H  H  H  H  H  H  O 

#matrix
201
 2.782095845145E+03
 -2.256882533807E+01 2.817925902796E+03
 1.507442547835E+00 -3.597863337737E+01 1.938931477488E+02
 3.991437515437E+01 6.737344857691E+01 4.533372719095E-02 2.791175490161E+03
 -3.106210981203E-01 -3.295266624119E-01 -4.237842842633E-01 -2.498343881156E+01 2.768372928471E+03
 8.331349000669E-01 4.722424895645E-01 8.936509769607E+00 6.380819489199E-01 -3.451421217234E+00 1.913869800684E+02
 -1.959791411271E+01 3.415257431028E+01 -6.659822899465E-01 4.975894555626E-02 -1.714348910358E-01 -1.426185538625E-01 2.802014742470E+03
 -3.441588506829E+01 5.796118939004E+01 1.579588092817E+00 1.822565364448E-01 1.500212863471E-01 -3.576834927261E-01 -3.968545146690E+01 2.817965096522E+03
 -2.710093018038E-01 -5.588940810389E-01 8.247716223983E+00 -5.785270990597E-01 -3.573356808462E-01 -1.321207915496E+00 -9.576343473291E+01 -7.444174923571E+01 2.201160749642E+02
 3.880172580785E+01 -6.854891085751E+01 9.923565950365E-01 -1.958218339299E+01 3.491479199115E+01 8.898756871502E-02 4.180303153018E+01 7.204163562536E+01 -1.917901483576E+00 2.784290015696E+03
 -4.400565336131E-01 7.780274705935E-01 -2.474054451781E-01 -3.325990374480E+01 5.902549154921E+01 1.046331364472E+00 -3.379229183654E-01 4.298171994286E-01 -1.147800775712E+00 -1.929515608949E+01 2.833410672813E+03
 9.028745169883E-02 -1.927134224578E-01 9.880739957681E+00 3.822402587520E-01 7.587758392292E-01 1.014109774177E+01 -7.279428252165E-01 -2.578399099954E+00 8.181451938001E+00 -4.838715450859E+01 -2.734012096690E+01 1.969815456722E+02
 -1.019296172577E-01 -1.850285646429E-01 3.785206756690E-01 3.785426439520E-01 6.652550312082E-02 8.714249342562E-02 4.126236703803E+01 -7.435256784356E+01 -4.060579839983E+00 -2.208453625200E+01 3.739968796226E+01 4.410751622811E-01 2.631567815333E+03
 3.650414979352E-01 -5.127936761827E-01 -1.955294467708E-01 -3.168691345905E-01 8.941529925755E-02 -8.605392086049E-02 7.047582219176E-01 -3.397149404780E-02 2.404117999903E+00 -3.450083388317E+01 6.453783031772E+01 2.381876975450E+00 -2.203347440814E+02 2.896922296449E+03
 2.131634091844E-01 -3.504465672173E-01 8.343042643604E-02 3.515329698935E-01 2.470090162431E-01 -3.326484094047E-02 -2.747647376410E+00 4.052035019157E+00 8.620485513048E+00 2.203674957045E+00 -4.585732367373E-02 1.048075282634E+01 -1.081682683049E+02 7.787269609462E-01 1.603481692605E+02
 -1.230434086689E+03 4.465106678444E+02 -1.065930348303E+01 -4.649116614871E+02 -7.978865914411E+00 -3.184791303144E+00 2.806456114210E-01 -3.708576447637E-01 6.606265713991E-01 2.066816896272E-01 8.104857364931E-01 -1.069103402198E+00 1.080313379769E-01 -8.291698872199E-01 -3.363473868229E-01 2.823720998762E+03
 4.417712489545E+02 -7.420713383146E+02 7.702792960554E+00 -7.060442461145E+00 -1.433103879492E+03 3.167398473038E+00 1.428385246871E-01 4.269123694315E-01 6.728461101580E-02 4.556399482360E-02 -2.451516192620E-01 2.366071295593E-01 1.425285688012E-01 -6.680366362833E-02 2.272469767317E-01 -2.108015645065E+00 2.778569224140E+03
 -1.213053813862E+01 1.089119146541E+01 -8.355411891354E+01 -1.729751295616E+00 1.735059694938E+00 -8.072961555768E+01 -5.334251094310E-01 1.338331787473E-01 3.152531246934E+00 6.800110402956E-01 2.020093581331E-01 -9.024160450004E+00 3.529319021533E-01 1.075136685989E-01 2.599603531676E-01 2.804902147254E+01 -5.776210849282E+00 1.926020450429E+02
 -1.192256820684E+03 -4.130980771569E+02 1.169816715884E+01 -6.026826264366E-02 2.236423112668E-01 3.018841811891E-01 -1.263261031382E+03 4.489864250484E+02 2.526474193161E+01 -4.875269184613E+02 -9.602723404865E+00 6.280415758752E+00 -1.395918918219E-01 -1.262753372345E-01 -1.476161074604E+00 -1.943777616102E+01 -3.321020048034E+01 7.989508645839E-01 2.821585945094E+03
 -4.130719937533E+02 -7.002475157099E+02 7.787115611206E+00 -2.606662734152E-02 -8.476323911332E-02 4.354627970072E-01 4.510648035516E+02 -7.441820201056E+02 -4.278353945445E-01 -1.103796867562E+01 -1.512602297983E+03 1.907785894669E+01 1.334324998306E+00 -1.145753478401E+00 1.181396822230E+00 3.395507882634E+01 5.824721770923E+01 -1.870175635435E+00 -2.884508739152E+01 2.839731770479E+03
 1.445482343299E+01 1.109299077616E+01 -8.136067371651E+01 -9.800048142989E-01 -3.976801389417E-01 -8.537790105401E+00 2.156433862372E+01 3.922251218208E+00 -8.647514865012E+01 7.052282452003E+00 1.473508018011E+01 -8.484727866919E+01 1.421343420324E+00 -2.291750462353E-02 -1.019436464108E+01 -4.012971895027E-01 -2.146900077180E+00 8.887358002781E+00 -4.081032303569E+01 -2.533463092836E+01 1.974611511297E+02
 6.356558168135E-03 4.546241089465E-02 1.541478751567E-01 -1.220941166140E+03 -4.195854640767E+02 3.452012946088E+00 -2.562709237142E-01 -4.052137549791E-01 -8.437598472333E-01 -1.224973207331E+03 4.414106687814E+02 1.338350538776E+01 1.805378995551E-02 3.517194271653E-02 5.771273933469E-02 3.693830690021E+01 -1.623956156785E-01 -3.664003565133E-01 4.184044487392E+01 -3.694704328690E-01 -1.144353191766E-01 2.807200116945E+03
 -3.175829439160E-02 -9.038449265653E-02 2.067991106011E-01 -4.220211633879E+02 -7.054220549917E+02 2.511679079554E-01 7.488781818249E-02 -1.326488534520E-01 1.361832299232E+00 4.396584978974E+02 -7.357320491379E+02 -3.871264333585E+00 -2.654313808180E-01 8.516849408683E-02 -2.574900199613E-01 -6.680667383933E+01 5.338734535406E-01 6.375822536162E-01 7.022497705085E+01 -4.581677892882E-01 -2.670027841828E-01 -2.995429293225E+00 2.808396605128E+03
 -5.847531641767E-01 -2.680668399344E-02 -9.426486839243E+00 3.914711338733E+00 1.473344794117E+00 -8.272978858253E+01 3.840619256234E-01 -1.029311760521E-01 5.386687212690E+00 1.274131551732E+01 -1.464109694731E+00 -8.398012553585E+01 -2.763571923097E-01 -3.228365498713E-02 5.096743622299E+00 2.548330388522E-01 4.982247473136E-01 8.775440548882E+00 -1.368065066781E+00 -1.066422961357E-01 8.728276898698E+00 -1.946980061563E+01 4.160045061322E+00 1.949982035039E+02
 2.603504944441E-01 -4.433310000532E-01 -9.751774738971E-02 -3.243999935920E-01 -7.411002322005E-02 1.162678176409E-01 -1.184905451420E+03 -4.110925247739E+02 6.182174985850E+01 7.222732698809E-01 4.891637451690E-01 6.834077049338E-01 -5.133869863744E+02 1.071964106167E+01 2.547180250175E+01 -6.372930398205E-01 -1.129924187172E-01 1.124032696434E-02 -1.967983108621E+01 -3.562397891231E+01 1.843393991840E+00 5.668287633225E-02 2.286589448907E-01 2.638241976857E-01 2.760342990151E+03
 -1.918870478441E-01 1.987400567820E+00 -4.300576789108E-01 2.927162333555E-01 -5.920806810621E-03 4.805560911714E-02 -4.206677079158E+02 -7.064909897411E+02 2.914106286870E+01 -8.107651119597E-01 -2.133166407372E+00 1.646840982700E-01 1.289237537988E+01 -1.632918686584E+03 5.104210687908E+00 1.741028469634E+00 -2.217134533405E-01 -4.466301026683E-01 3.352301113391E+01 6.033445939581E+01 -5.314439626744E+00 2.410264594284E-01 -1.852207647478E-01 4.769284483920E-01 -1.955419975251E+01 2.950750908349E+03
 7.220465580072E-01 -2.020952097235E-01 4.540373026017E+00 -1.974731656699E-01 1.258075195305E-01 3.617844311915E-01 6.269288075213E+01 3.256784181920E+01 -8.333560284166E+01 -1.712327245995E+00 -4.369653980141E-01 -9.305162419482E+00 2.374001539998E+01 3.172790586007E+00 -7.965041940086E+01 -3.085175894836E-02 -3.605325448896E-01 -2.908071486513E-01 -1.555503929498E-02 -1.628805780230E+00 1.061301311007E+01 4.270989724572E-01 5.289224557311E-02 -5.066286552060E-01 -1.609910702661E+02 -5.869310317011E+00 1.936248403789E+02
 2.110024614161E-01 1.146150270871E-01 -2.746862223790E-01 -3.259361429592E-01 -3.023090337975E-02 -4.026181690975E-01 8.524939157719E-01 1.487166430137E+00 1.845659690661E+00 -1.188967796880E+03 -4.192106306584E+02 2.906658458404E+01 -1.338787045863E+03 4.866160772254E+02 4.892461142265E+01 -2.607178331100E-01 -9.469660605258E-02 -5.929228049244E-01 3.889595674541E+01 -1.364681257545E+00 -2.045354114039E+00 -1.936876416931E+01 -3.285566549854E+01 1.088694310977E+00 4.660386317927E+01 2.245900542274E+00 -1.165531674150E+00 2.877157489624E+03
 -2.044425627045E-01 -1.888013076156E-01 3.994352313946E-01 1.936910166561E-01 -3.001694180438E-02 -2.154294193579E-02 1.789767029582E-01 -1.356258501828E+00 -9.903894191862E-01 -4.125049995261E+02 -7.058921542511E+02 1.118143671300E+01 4.868266490160E+02 -8.203378556368E+02 -2.102302994245E+01 -6.283105853731E-03 1.815032394943E-01 -1.185092471268E-01 -6.817616164864E+01 6.911415017222E-01 2.966397596835E+00 3.418970265111E+01 5.760675486347E+01 -2.261839197118E+00 8.219638890926E+01 1.572397965778E+00 -2.286667171611E+00 -8.832840711279E+01 2.846152762790E+03
 -2.821949255112E-01 -5.736751094537E-02 3.784478785148E+00 5.848467793126E-01 2.674406110268E-02 3.382458275905E+00 -9.726763758708E-02 -1.874835511052E-01 -1.252235073621E+01 2.929995394430E+01 1.387146720990E+01 -8.518814611377E+01 4.908215283565E+01 -1.990177899463E+01 -8.017091250766E+01 -1.605533750729E-01 3.354142651850E-01 -1.875743802202E-02 4.120261277035E-01 -4.336977987188E-02 9.158028440852E+00 1.570140868119E-01 -1.025302186713E+00 9.283286178659E+00 -2.116538231395E+00 1.197784904774E+00 9.578135972164E+00 -8.844121206000E+01 1.133450636271E+01 1.895248060578E+02
 7.045011069702E-02 3.568422726874E-02 -3.160581060532E-02 -2.900961315273E-04 -5.624602553655E-03 2.212747782882E-01 -2.871016147540E-02 1.042334061059E-01 -3.156809494677E-01 7.804430090580E-02 9.636206478607E-02 6.741878420059E-02 1.196855845477E-01 -1.293286432617E-01 8.747532287035E-02 -1.306246115013E-01 -4.629069296786E-03 -3.594624113321E-02 -4.569193429141E-02 -7.875247527794E-02 3.133993541723E-02 1.733293167440E-02 -1.417647419571E-02 2.417350186806E-02 -8.542471333726E-02 4.724180981577E-03 -5.819092794392E-02 -1.659940911898E-01 4.939589143801E-02 -2.318020719253E-03 2.809360626172E+03
 4.125471590400E-04 -1.247045280466E-01 4.488187766526E-01 4.376905151327E-02 1.530242852285E-02 1.624834578742E-01 3.249380693967E-03 -3.710762495233E-01 -1.315040985943E-01 -8.983067271085E-02 -1.268467619412E-01 1.181598227650E-01 -2.240700761187E-01 1.945914583691E-01 -7.845659777199E-02 -7.019586836821E-03 -8.804564421156E-02 8.603886162990E-04 4.764096308432E-02 1.238514581953E-01 2.439724175659E-01 -1.798808694367E-02 -8.130051147983E-03 -1.252270781855E-01 1.758907616599E-01 1.261136940095E-01 1.243207968467E-01 3.085350472450E-01 -1.060771647136E-01 -8.105886933385E-02 1.266475143718E+00 2.800168853807E+03
 -1.172328616826E-01 -7.138904694774E-03 -2.424951132824E-01 -7.479326356471E-03 2.242197525798E-02 -3.696748128116E-01 1.588421261434E-02 1.937748677706E-01 4.865881496688E-01 -1.501965002649E-01 -9.436753659732E-02 -5.173833533389E-01 -5.821368264241E-02 6.831692571259E-02 1.200780677472E-01 2.892681384276E-03 -1.384768595528E-02 4.417140263298E+00 8.868454475121E-02 -7.301194186998E-03 -3.984090860921E-01 -3.622180476122E-02 3.465956147574E-02 3.470344581859E-01 -1.137163251097E-02 6.496708497946E-03 -3.784015781131E-01 1.830943356024E-01 -1.392701167431E-02 7.857150094550E-01 5.372249086664E+01 1.992933421441E+01 1.950495041170E+02
 -4.017383029859E-02 1.671830488516E-01 -2.781060294477E-01 -3.832339665829E-02 -1.489944918327E-02 -1.491555700730E-01 -3.429849096357E-02 3.900379871989E-01 1.139607351166E-01 7.127727900418E-02 5.227390925052E-02 -3.489187748869E-02 6.613116094068E-02 1.141710145717E-01 1.123792806442E-01 1.521494057362E-01 5.298756652478E-02 -1.441509513488E-01 -4.787028243790E-02 -3.962923820057E-02 -1.665348151654E-01 3.353036153588E-03 -1.372430592610E-03 5.079146672977E-02 6.108278924343E-02 -5.284419000347E-01 -1.424825860277E-01 -1.298485379879E-01 -2.603399285049E-03 -4.677016283150E-02 4.170577621779E+01 7.169445733038E+01 1.289023060535E+00 2.783036806529E+03
 -5.818350920381E-02 -2.831140530393E-01 8.258518316698E-02 3.830135740539E-02 -1.949870096823E-02 1.466042668864E-01 1.428723412513E-02 -5.705208006509E-01 -3.338017261520E-01 -1.695769645973E-01 -1.713709585870E-01 5.092336901324E-02 -1.980331871637E-01 5.679635915634E-02 -4.824603351283E-02 -1.122337508995E-01 8.320319993284E-02 -1.330980620935E-02 1.030145458684E-01 1.470404660165E-01 4.029065829120E-02 -3.198310531411E-02 5.406123480225E-03 -2.687385349626E-02 -2.244666737133E-02 6.829957358627E-01 6.571102153248E-02 3.304158966366E-01 -1.142224232440E-01 7.011611943651E-02 -1.066359634761E+00 -1.956500625068E+00 -1.126082399959E-01 2.775368429038E+02 2.857332618059E+03
 1.370202496595E-01 -2.185746239032E-01 8.090523180102E-01 -1.005917776875E-01 6.304048163130E-02 1.255256532483E+00 -2.530875667544E-02 2.758688634585E-01 1.278152167644E+00 5.646464051171E-01 6.385952616776E-01 1.937764058293E+00 -6.050656062698E-01 7.834593066540E-01 -1.375654054630E-01 -1.056080197196E-01 1.076387985996E-01 1.463255382442E-01 1.705644380255E-02 1.261755524691E-02 1.580799374525E+00 -8.194484330153E-02 -6.427758598394E-02 -1.249208930441E+00 3.298854060955E-01 -8.819592963619E-01 1.271724813665E+00 -9.867443070155E-02 -5.286801012087E-01 -4.034705151672E+00 7.330358537697E-01 1.408707224415E+00 9.945853697434E+00 5.477037135837E+01 2.900359156483E+01 1.547770911627E+02
 -2.028505373351E+01 -3.395136458517E+01 -5.177847438286E-01 3.812507520956E+01 -1.835800559196E-01 8.247843425999E-01 -1.199596649897E-01 -2.514051404187E-02 7.786806907179E-02 6.523036508821E-02 -2.149108350776E-01 3.647668058306E-01 5.980125337381E-03 2.525299300420E-01 9.147904310145E-02 -1.248300069866E+03 -4.334015909196E+02 -1.345980325514E+01 -1.350437279625E-01 7.357876753932E-02 3.151518605304E-01 6.709985957653E-02 4.068441178684E-02 -9.054236848507E-02 2.129662479773E-01 -5.499361459275E-01 1.659687230291E-01 3.618614198716E-02 4.174352789364E-03 3.826102147720E-02 -1.952289805494E+01 3.407873691650E+01 -5.101311118427E-01 -2.567705604378E-02 6.540530874866E-02 3.647850034976E-02 2.780481897875E+03
 3.581494020475E+01 6.109692219386E+01 1.706764525855E+00 -6.772030514243E+01 4.446107377646E-01 -1.262768313568E+00 -2.530373182809E-01 -1.903653570600E-01 -1.658207809451E-01 -2.513297280424E-01 -4.595219034250E-01 -5.048387684051E-03 -6.340053275379E-01 1.153249802119E+00 -1.862318243861E-01 -4.376837450377E+02 -7.195634662906E+02 -4.835899990794E+00 -5.738751848642E-02 4.440270777320E-01 1.717350051413E-01 -3.003135797928E-02 -7.419604059815E-02 -2.823228897485E-01 1.186163557344E+00 -1.886329285891E+00 4.001570543625E-02 8.460055880524E-01 -2.539190341650E-01 -2.668488782185E-02 -3.234005982296E+01 5.709895636461E+01 -3.557342423146E-01 -1.335553511347E-01 2.126569338305E-02 -2.006750125683E-01 1.817673432603E+01 2.801477958880E+03
 -6.597277269096E-01 -8.563024052832E-03 9.926086268106E+00 5.913430213995E-01 -3.810462743925E-01 8.850317260766E+00 -1.885925203994E-01 1.535880017764E-02 -1.910772531095E+00 -4.493033181098E-03 -3.866987549798E-02 -2.958847996435E-01 3.470431005684E-01 -2.152543347800E-01 1.926531416278E-01 -1.454616296596E+01 -5.178988388341E+00 -8.277665792520E+01 -4.634313253205E-02 -7.436700152264E-02 4.283771407123E+00 -1.727736720650E-02 -3.961805694114E-03 4.668669352369E+00 -2.644835933621E-02 -2.234750685642E-02 -4.897114735800E-01 -2.513322778112E-01 1.233558369387E-01 9.835472598410E-01 -8.231256883058E-01 1.620565150230E+00 8.842597930662E+00 -2.904966634459E-01 -1.350306625218E-02 -9.500851954337E-01 3.761296173826E+01 2.073144109569E+00 1.921647926647E+02
 -7.544309041097E-02 2.891660844818E-01 -3.684660284338E-01 -1.896274554339E+01 -3.135890568301E+01 -5.319322622597E-01 -5.780386948188E-02 5.067183406156E-01 1.087461098945E-01 1.036521673792E-01 1.970332152446E-02 1.304986940406E-02 1.578606317712E-01 1.757057315192E-01 6.961050252554E-02 1.570407367012E-01 2.807111960730E-01 -6.861298646221E-02 -1.126731488191E-01 7.142468386440E-03 -2.018196021253E-01 1.877370455294E-02 -2.889484633960E-02 6.634070259312E-02 1.535507887227E-01 -9.550387497610E-01 -9.066043728809E-02 -2.590710831700E-01 4.364659280610E-02 -1.300244057095E-01 3.937719187712E+01 -6.933446388680E+01 3.436408691639E-02 -2.310196239178E+01 4.051950121776E+01 -1.871822253090E-01 4.011711937381E+01 6.660261541756E+01 8.831679035831E-01 2.772423534719E+03
 -4.195963456998E-02 -2.043274355905E-01 -3.412264136590E-01 3.347566055581E+01 5.561106740090E+01 1.177981799256E+00 -6.331583150808E-02 -4.218466739709E-01 -3.661942066478E-01 -2.425299862229E-01 -2.647643308712E-01 1.573586262948E-01 -2.193716860890E-01 1.468298018916E-01 3.365860602425E-02 3.222481602536E-01 7.624230827003E-02 -3.403186510359E-01 1.151750165112E-01 1.568419662821E-01 -1.240555468012E-01 1.623580081862E-02 -1.357460619752E-02 -2.456921746438E-02 1.000238454033E-01 3.712716377062E-01 -9.965663248078E-03 4.058938321345E-01 -7.951206474344E-02 2.965876359023E-01 -1.018937978124E-01 1.420477787257E-01 -9.741957430727E-02 -4.194238214473E+01 7.394137163183E+01 -4.882041807623E-01 -2.715768288930E-01 -2.234702462566E-01 1.119465291878E-01 -3.777758540593E+01 2.756100811514E+03
 -1.488813610495E-01 1.379743312326E-01 -5.159303386360E-01 -1.636326764858E-01 7.376979693858E-01 7.292752027348E+00 -7.256053878598E-02 1.450271151640E-01 -1.512085086290E+00 -4.150171839282E-01 -1.853923085370E-01 -1.325902679884E+00 3.341424431867E-01 -2.939476976482E-01 3.815252661402E-01 6.824141771943E-01 2.502312265476E-01 -8.869699467252E+00 1.147203816444E-01 -4.290506690598E-02 -1.075731045279E+00 -3.566303458917E-02 -1.184189095203E-01 5.123037038241E+00 -6.009468724317E-02 1.602904075902E-01 -1.223616836808E+00 7.514781693518E-02 1.768709577701E-01 2.738729515074E+00 1.065005667591E+00 -1.743506336081E+00 1.027022140130E+01 -1.120554328599E+00 1.779056170775E+00 9.566946046895E+00 5.188737317172E-01 9.465594021328E-01 9.529937170299E+00 3.830941854095E+01 1.438731900721E+01 1.874618549263E+02
 -2.792645778843E-02 -1.300506958010E-01 1.376952699814E-01 6.835943709509E-02 1.409713068797E-02 -7.197450930206E-02 1.696947932789E-02 -3.334183678825E-01 -2.313449651601E-01 -1.276849381333E-01 -1.271626498145E-01 -1.272532062088E-01 -1.251626848942E-01 3.203966152168E-02 -3.057251371402E-02 -6.953375289177E-02 -5.919770943976E-02 1.416071020283E-01 5.828580293474E-02 8.529126342504E-02 1.307766527106E-02 -3.074396399734E-02 1.098723787159E-02 3.972607007855E-02 1.268652847708E-02 3.920080336615E-01 -4.255413966479E-02 2.454726703930E-01 -5.242571859269E-02 2.846433918841E-01 -1.233281529629E+03 4.345576487452E+02 -2.020151081303E+01 -5.079181727907E+02 -1.808481156667E+01 -9.442163242637E+00 -2.077556580717E-02 5.208614516205E-02 2.764180018497E-01 1.514068884574E-01 -9.112185531674E-02 1.118774827174E-01 2.842027994024E+03
 2.309267925004E-03 2.533218500149E-01 -3.581474635662E-01 -5.391212523921E-02 1.557797227955E-03 -3.232344954445E-01 -4.244057235776E-02 5.149049247257E-01 5.480189123510E-01 3.928889451770E-02 4.702261193009E-02 -2.100721037570E-01 1.683833251197E-01 -6.542269430347E-02 3.415305351509E-05 1.539357432077E-01 7.520595375694E-03 -1.540499263858E-01 -5.944006691397E-02 -9.542907569138E-02 -2.857059111584E-01 3.596290453826E-02 1.088853502214E-02 1.459369947010E-01 7.356136729649E-03 -5.854851341073E-01 -1.031380680022E-01 -2.241438703531E-01 1.491873202999E-01 2.230997809114E-01 4.367231453409E+02 -7.317745553360E+02 3.895990640227E+00 -2.805519204412E+01 -1.541106681685E+03 -1.403557247008E+01 -2.253762218360E-02 -7.429049609147E-02 -2.299723521089E-01 -5.084626113193E-02 1.008066734694E-01 -6.074482069391E-02 2.959308231420E+01 2.892406968892E+03
 -4.755010040159E-02 -4.189322983895E-01 4.383586581225E-01 -4.507633404295E-02 4.448025877864E-02 7.698570824196E-01 6.273872651080E-02 -3.366238343436E-01 2.881897256181E+00 1.605423251637E-01 1.905802680687E-01 1.301423093148E+00 -6.253202246615E-01 5.064928161066E-01 -5.980636558413E-01 -1.427762212573E-01 8.833975181709E-02 -1.032958898944E-01 1.511709617700E-01 1.704207377580E-01 1.064214641850E+00 -1.018618856987E-01 3.923236575711E-02 -8.591359209311E-01 1.358739818858E-01 2.054772098405E-02 1.504689532583E+00 2.283981143670E-01 -3.316980088063E-01 -2.924353894634E+00 -2.041353747065E+01 3.994589970858E+00 -8.601159445230E+01 -9.028714464228E+00 -1.383333074099E+01 -7.430560330765E+01 -1.071513976753E-01 -1.408421703277E-01 3.653877797770E+00 5.001577075456E-01 -1.208131052804E-01 -1.268319389806E+01 5.576512115135E+01 2.479895272105E+01 1.878431511433E+02
 -4.961759599903E-02 5.338764229969E-02 4.421501278668E-01 1.221890081669E-01 4.696391381957E-02 -4.488474005865E-01 1.271920876060E-02 -3.964962800691E-02 3.328407035808E-01 -6.422108186276E-02 -9.545376993287E-02 -1.990977389583E-01 -2.486284999967E-01 3.255348954846E-01 -1.030394402353E-01 -1.954442240796E+01 3.453291177192E+01 -2.109281300971E-01 1.214470960358E-02 1.206230760173E-01 1.276861119328E-01 -2.869574487773E-02 1.940781210240E-02 -9.805564090318E-02 2.854157481173E-01 -3.772815245598E-01 3.474701252273E-03 2.990025924179E-01 -1.061845043397E-01 -4.994854756758E-02 -1.222409929295E+03 -4.244078599532E+02 -2.580318050163E+01 4.715766154727E-02 3.877635693376E-02 1.698469044443E-01 -1.171867105008E+03 4.248904370556E+02 -1.738968024738E+01 -4.728476432851E+02 -1.001782953854E+01 -7.371050324492E+00 -1.974780770800E+01 -3.383282971748E+01 -8.601168186397E-01 2.751703464909E+03
 2.877430668949E-02 1.651197800968E-01 -2.515047813931E-01 3.289559345612E-02 -1.447247631213E-01 -8.727944529944E-02 3.520451906936E-03 3.683671805103E-01 -3.885889430409E-01 1.861464131351E-01 2.478124369104E-01 -4.693961637047E-02 3.563685532538E-01 -3.845596423375E-01 5.097296131563E-02 -3.291176194807E+01 5.821693739659E+01 -6.422252501274E-01 -8.642941606559E-02 -1.963924250992E-01 -2.117779093464E-01 1.557322144837E-02 1.824097049423E-03 6.386343411855E-02 -3.127077795892E-01 4.626572105557E-02 -7.922204950488E-02 -5.263086785008E-01 1.577734033830E-01 -1.706302123198E-01 -4.276823402851E+02 -7.126472121264E+02 -1.332864164092E+01 4.615380496763E-02 1.062044402995E-01 4.216063182511E-01 4.260598288222E+02 -7.166965567418E+02 4.551470735637E+00 -6.517191827248E-01 -1.497132275546E+03 -9.327260339934E+00 3.458455334618E+01 5.949319921094E+01 1.171249411673E+00 2.364657661415E+00 2.808854822891E+03
 -1.438103774977E-02 4.026295280025E-02 5.396357468012E+00 4.120056374600E-01 2.263856699927E-02 -7.601175235734E+00 -1.650845435458E-01 -3.067385543150E-01 -1.982381204070E+00 5.756541777454E-01 5.010363789780E-01 1.659026338307E+00 1.289041847440E-01 1.242806823470E-02 -1.209044507806E-01 -3.979715860923E-01 3.818971128174E-03 9.208866408392E+00 -1.911783646727E-01 -1.524636887490E-01 1.305972802721E+00 -4.953691924068E-02 -1.608199793934E-01 -1.104172499824E+00 8.989010020799E-02 -2.965876925337E-01 9.167043677722E-01 -6.104320640730E-01 -1.320210859136E-01 -2.601747258003E+00 -2.565579943344E+01 -1.308237957666E+01 -8.367878464957E+01 3.932435135140E-02 2.192742956759E-02 -7.461226428116E+00 -1.783546249141E+01 6.282260594651E+00 -8.104387605166E+01 -6.605235051806E+00 -1.077441410775E+01 -8.471613861774E+01 -3.681759176359E-01 -6.837419935530E-01 1.171060766834E+01 4.943082083282E+01 1.776138589170E+01 1.943432996316E+02
 4.869193352388E-02 -1.080055487108E-01 1.750351765471E-01 2.558368585540E-02 3.507173548068E-02 7.012912163522E-02 5.568850525495E-03 -6.324804890475E-02 2.122986058067E-01 -6.107787458755E-02 1.129304945027E-02 -3.182054323026E-02 -1.322804398412E-01 7.174674131438E-03 -6.827192852908E-03 -1.446649829030E-01 -3.804508198463E-02 8.088505465065E-02 6.874797182074E-02 -7.179360022906E-03 7.670386182692E-02 -2.062285045764E-02 4.731628304335E-03 3.133193035244E-02 -5.331731799471E-03 2.176389234258E-01 3.833589458390E-03 1.613524128319E-01 -3.244449134398E-02 5.225366028320E-02 -4.785792814186E-02 -6.675697473258E-02 3.079032100388E-01 -1.506574537750E+03 -5.276467517256E+02 -3.291550858770E+01 3.641754987843E-02 8.908802377196E-02 4.193640711257E-02 -1.276600388087E+03 4.354066649063E+02 -1.713967850858E+01 4.875702282760E+01 -1.191001382653E+00 5.905629715086E-01 3.944124082827E+01 -7.964027065622E-02 3.961906364331E-01 3.073156945821E+03
 2.063881784741E-02 2.516737095992E-02 1.984063094469E-01 3.835980567216E-02 -2.364296065646E-03 8.817256613156E-02 1.680271272049E-02 -2.085069304481E-01 -1.392755490011E-01 2.690589010379E-02 -3.613182263825E-02 4.106922814730E-02 9.418641116085E-02 -1.256557628433E-01 -1.153827267449E-01 -1.822230593302E-02 -9.532341985040E-02 1.134604983377E-01 -5.438874333514E-02 9.344496647806E-03 1.273137748548E-01 1.391023223501E-02 -4.984418449832E-03 -5.108531708404E-02 -2.090396231048E-02 1.206533018761E-01 1.461849275690E-01 -7.729574616220E-02 6.700006277507E-02 3.744129424126E-02 5.642568203828E-02 6.185914838828E-02 7.116631490996E-02 -5.373476450592E+02 -8.636375231246E+02 -1.736423636620E+01 -4.231422944738E-02 6.309316713496E-02 2.159933381437E-01 4.202377741078E+02 -7.272571644228E+02 2.911993255301E+00 -8.579940015086E+01 2.082021071538E+00 -1.735370942343E+00 7.201614865366E+01 -1.848501050440E-01 1.374268033675E+00 8.977231509239E+01 2.538543996175E+03
 1.596147039395E-01 -2.192989445489E-01 6.236609237127E-01 -1.985036216517E-01 -1.830671378031E-01 5.558983815740E+00 2.078432797575E-02 -5.061679154967E-01 2.052751236338E-01 3.793828863347E-01 3.135856006629E-01 1.454195595524E+00 1.767189077924E-02 -1.427441034806E-01 -4.557998404407E-01 -1.419233745730E-01 1.975053605161E-01 7.171697900809E-02 -1.037232153373E-01 4.242955981949E-02 1.147348639935E+00 9.601341499623E-02 -4.565384695221E-02 -9.688771201743E-01 -7.312133362109E-02 1.922635658670E-01 1.303849143149E+00 -4.428985058830E-01 -3.763458443235E-02 -2.566613896688E+00 -4.463828813756E-02 8.922470880129E-02 -1.109822809467E+01 -3.236402833065E+01 -1.695095820541E+01 -6.790612369802E+01 1.075309817137E-01 4.421804195877E-03 4.063806692379E+00 -1.816317550220E+01 3.997571728042E+00 -7.861056351773E+01 -2.630192477842E-01 6.009927276499E-03 1.293646676809E+01 1.070924862125E+00 -1.078267650222E-01 1.209003143389E+01 5.558954959895E+01 1.960128261421E+01 1.539987637255E+02
 -1.231432685712E-04 -2.688916948252E-01 1.151015547889E-02 -1.226024431295E+03 4.470528687471E+02 -2.465693557108E+00 5.727049253618E-02 -4.736662484695E-01 2.368060949708E-01 -4.995604120466E-02 -1.026272472547E-01 3.903675697791E-01 -9.284716834228E-02 -6.527574484418E-02 -3.931843800928E-02 4.069193485669E+01 -4.388406376486E-01 -2.085984506317E-01 8.842908505585E-02 2.928969176178E-02 1.798083169264E-01 -2.009321423089E+01 3.567400060307E+01 2.873463921287E-01 -7.157752248063E-02 6.703652391345E-01 1.897095057600E-01 1.866509198138E-01 -5.351217880547E-02 1.465351754277E-01 4.191183459601E-02 -4.485829356642E-02 5.866718509168E-04 3.145558277927E-02 -7.181131465773E-02 -2.629817591073E-01 -2.060674019807E-01 1.756598981925E-01 4.594258145071E-01 -1.139719155428E+03 -3.891565518541E+02 -1.481789526740E+01 -3.629400772078E-02 5.424478375396E-02 -1.858650205183E-01 3.657251568702E+01 7.230055815924E-02 1.181569155174E-01 -1.770597598718E+01 -3.228577034474E+01 -4.779160980809E-01 2.733114191348E+03
 1.065145011478E-01 -1.015959383121E-01 5.626717022421E-01 4.567477472391E+02 -7.425465630648E+02 -1.444794439485E+00 1.505716423067E-01 1.944890369048E-01 3.518203980078E-01 2.485248020733E-01 5.407314529600E-01 -2.201239695513E-01 2.656934347420E-01 -5.946347130169E-01 -1.174556255867E-01 6.660013163158E+01 -6.057342853622E-01 2.237080463164E-01 -2.404666270514E-02 -2.792831914342E-01 1.589025725715E-01 -3.330910305507E+01 5.935973279022E+01 -5.882954733100E-01 -4.950690185892E-01 6.931325674369E-01 -7.534627375291E-02 -5.071874509438E-01 7.878194404417E-02 -3.023628616327E-01 -3.930996947603E-02 5.543427916612E-02 -3.100255664262E-02 2.495459431691E-02 1.248386985090E-02 4.833312538987E-02 1.497855863208E-01 3.243402562659E-01 5.300139506709E-02 -3.875688926225E+02 -6.659389805822E+02 -9.501304940846E+00 3.249972181200E-02 -3.103599370426E-02 5.179887755215E-02 -6.493270761018E+01 9.166057471228E-02 -6.467507703153E-01 3.145635829486E+01 5.755687070900E+01 4.822316780243E-01 -9.810032000674E+00 2.817783875663E+03
 -3.264632693268E-02 -5.864832352270E-01 4.396234975517E+00 -3.024219206387E+00 4.650324482198E-02 -8.267576482865E+01 1.147785759698E-01 -9.455285574440E-01 2.435298251084E+00 -6.503868492467E-01 -3.014355015698E-01 4.344878180849E+00 1.480735550924E-02 -4.820015710234E-01 -7.397519753649E-01 -1.813370813592E-01 8.467640619176E-02 8.478430821707E+00 3.184998702129E-01 4.722108461434E-01 -2.717947424525E-01 3.642667614071E-01 -8.507819247290E-01 9.740812322395E+00 -2.278524007371E-01 1.120791443442E+00 7.711218199612E-01 1.564468411249E-01 1.180441194888E-01 4.400866443371E-01 -3.776073527905E-01 -2.274308158332E-01 4.372020219521E+00 8.024153025364E-02 -1.893363618238E-01 4.712922621495E+00 -1.208599642363E-01 1.033058751148E-01 -8.898142721394E+00 -1.433787097505E+01 -8.383679514884E+00 -8.023482832209E+01 1.450283938845E-02 4.324913946584E-01 7.803488876502E-03 -1.185614078179E-02 7.521036328005E-02 7.402849192843E+00 -6.433918392422E-01 -4.464672544392E-01 9.429116659250E+00 1.984652804213E+01 2.369742405112E+01 1.873890963592E+02