#BIOSYM hessian 1
@Type: Hessian Update
@Units
 distance: 	A
 energy: 	Kcal/Mol
#header
@natom 67

#label
C1      C2      C3      C4      C5      C6      C7      C8      C9      C10     C11     C12     C13     C14     C15     C16     C17     C18     C19     C20     C21     C22     C23     H24     C25     C26     C27     C28     C29     C30     C31     C32     C33     C34     C35     C36     C37     C38     C39     C40     C41     C42     C43     C44     C45     C46     C47     C48     C49     H50     H51     H52     H53     H54     H55     H56     H57     H58     H59     H60     H61     H62     H63     H64     H65     H66     H67

#element
C  C  C  C  C  C  C  C  C  C  C  C  C  C  C  C  C  C  C  C  C  C  C  H  C  C  C  C  C  C  C  C  C  C  C  C  C  C  C  C  C  C  C  C  C  C  C  C  C  H  H  H  H  H  H  H  H  H  H  H  H  H  H  H  H  H  H 

#matrix
201
 2.779612533566E+03
 1.411748931095E+01 2.861263017888E+03
 1.558406343440E+02 -9.532932626582E+01 1.085459989185E+03
 3.076557549718E+01 7.986504500323E+01 4.915167144188E+01 2.780227125462E+03
 -2.349208038140E+01 2.376841464964E+01 4.203225665675E+01 -1.884918095875E+01 2.726267743731E+03
 1.091496477546E+01 9.136504874402E+00 1.013399083261E+01 1.199739221509E+02 -1.581043010616E+02 2.155421129950E+02
 -1.493252334120E+01 4.617324088499E+01 -1.106198267421E+01 -3.719154805503E+00 -1.194237497359E+01 1.468484540379E+00 2.762478532515E+03
 -1.286454764899E+01 4.202027446747E+01 -7.497250574136E+01 1.346109864692E+01 2.619602423844E+01 -4.432415475393E+00 -2.866376943715E+01 2.801484385257E+03
 6.099082598090E+00 -1.520584699966E+01 1.273099499575E+01 5.531955290073E-01 7.667531786194E+00 4.951082533738E+00 -2.614906495420E+02 -6.248035282022E+01 2.395818789171E+02
 6.757557719756E+01 -9.196478519682E+01 -8.302462330498E+01 -7.272666225877E+00 5.070296230940E+01 -7.635887454892E+00 4.797561314445E+01 5.158953279236E+01 -1.328276996785E+01 2.762090865524E+03
 -2.561718042880E+01 3.396876117833E+01 1.070840129091E+02 -4.869211814219E+01 2.430711009808E+01 5.620886420748E+00 -1.460371762506E+01 3.617840796919E+01 4.270337094479E-01 -1.641397016339E+01 2.769540444460E+03
 -4.444527861848E+00 8.872976768223E+00 4.924820247896E+00 6.019781218304E+00 4.777453637798E+00 1.361656103440E+01 -6.896480137699E+00 -1.231126597928E+01 1.924195206708E+01 -1.813318725908E+02 -1.675836042433E+02 2.312359938485E+02
 6.655055908761E+00 -5.914821620946E+00 -2.939513941638E+01 4.761722229205E+00 5.814176220989E+00 -1.331131176849E+00 4.317365852555E+01 -8.085302317610E+01 1.874394531719E+00 -2.824769413987E+01 4.732355398323E+01 3.407767317978E+00 2.621447020289E+03
 4.278837071938E+00 -3.697755949779E+00 -1.350830975865E+01 1.589795305958E+00 2.907656911814E+00 3.221888994003E-02 7.326775845975E-01 -3.995914795607E+00 1.991996658171E+00 -3.834425618799E+01 6.727655069896E+01 1.832817858388E+00 -2.260889613817E+02 2.897242805686E+03
 -2.281803941821E+00 1.758657256858E+00 5.368421982478E+00 5.458606542230E-01 -1.864190798952E+00 -1.197878495516E-01 -4.825640055284E+00 8.733079367012E+00 8.990057074230E+00 5.436764599834E+00 -7.200346429000E+00 9.527183569214E+00 -1.795946373546E+02 -6.939753204510E+01 1.714923218038E+02
 -1.187957763083E+03 4.787152548995E+02 -2.827127568768E+02 -4.540138880074E+02 -5.694033582230E+01 -4.278596787159E+01 -2.537613926271E+01 2.258196582148E+01 7.969277309114E+00 1.104890596830E+00 -3.531422372978E+01 8.193244940065E+00 -5.386734057143E+00 2.123804857639E+00 -8.467729695832E+00 2.566811933312E+03
 4.436592663491E+02 -6.776552455324E+02 1.833994967076E+02 -2.818740311542E+01 -1.411534557497E+03 6.981542781742E+01 1.140213049603E+01 -8.399443374319E+00 -4.530712877907E+00 7.469527439831E+00 8.692004324759E+00 1.104491405358E-01 5.059012741040E+00 1.375632044939E+00 2.965363294275E+00 8.997348127568E+01 2.677630732353E+03
 -2.273440336922E+02 1.408676718311E+02 -1.699404290067E+02 -3.329406795759E+01 5.804948436012E+01 -1.001564292576E+02 -1.704636751377E+01 8.144612866539E+00 2.054827501959E+00 8.873473059424E+00 -2.441371462438E+01 -9.729952918846E+00 -1.154207922381E+00 1.961703902821E+00 -2.224799621620E+00 3.506697907292E+02 -1.991469891300E+02 3.575038779504E+02
 -1.062484626602E+03 -4.588472877943E+02 1.625063320627E+02 -4.099784284362E+00 4.371712722538E+01 -6.452274978620E+00 -1.224256742579E+03 4.134004216079E+02 1.090474335682E+02 -5.081333924557E+02 5.187543190666E+01 4.714595596970E+01 -2.997383504519E-01 -4.657001140508E+00 8.485772355436E+00 1.344787912441E+02 -9.013521191257E+01 6.626993555537E+01 2.552548135150E+03
 -3.818620152614E+02 -6.638448594814E+02 6.794686280323E+01 -1.119197228803E+00 2.079699148762E+01 -5.237630999091E-01 4.661122495135E+02 -7.872278225725E+02 -7.080051290040E+00 -1.268393965145E+01 -1.477525540768E+03 8.017823964561E+01 -9.720749503576E-01 -4.046152694081E+00 4.756501243041E+00 1.030225663732E+02 1.326229767988E+01 2.002001538677E+01 -1.332830221537E+02 2.744840425364E+03
 2.008794675989E+02 1.365266838845E+02 -1.415369411663E+02 -5.653476316567E+00 -2.141653266522E+01 -1.164753935284E+01 1.039730562505E+02 2.217684570286E-03 -1.158293982217E+02 5.420143431192E+01 6.876508131660E+01 -1.116587132249E+02 -4.034346964000E+00 -1.747840491655E+00 -9.429398329477E+00 -6.097813481397E+01 1.644616737291E+01 -1.549603086183E+01 -3.760288972487E+02 -1.950179565909E+02 3.752237289208E+02
 -1.568134492280E+01 7.171104991935E+00 1.617008936246E+01 -1.222933223068E+03 -4.226949820316E+02 -2.573330982036E+00 1.100914527302E+00 3.665874891329E+00 4.429857760613E+00 -1.222154565411E+03 4.410526477030E+02 3.062599605687E+01 8.761781412329E-02 1.094114113056E+00 -1.248065576259E+00 2.219402078520E+01 7.849822696250E+00 -4.953607527873E+00 6.892834890157E+01 7.889097268649E+00 -5.895122038662E+00 2.807746239505E+03
 4.317795037894E+01 -4.154946663181E+01 -1.374868162973E+02 -4.064364219930E+02 -6.635486910333E+02 5.427719856597E+00 1.163713908361E+01 -3.824496916944E+01 -5.062511328712E+00 4.138716069432E+02 -6.800220422289E+02 -3.258400775386E+00 -9.877351275014E+00 -5.430437618717E+00 2.539663191550E+00 -2.953388966934E+01 -6.489431750841E+00 2.672686014884E+01 7.168719753779E+00 -3.317979928728E+01 2.736970628689E+01 4.768115530180E+00 2.733271334933E+03
 -5.703052129200E-01 -2.295696977969E+00 -6.230184981739E+00 2.528216310420E+00 2.588697080164E+01 -8.133825115602E+01 1.078356128077E+00 -5.197676792281E-01 8.789566704124E+00 2.403261944226E+01 1.801688438594E+01 -8.090888209644E+01 -5.397313585208E-01 6.390239842875E-01 4.469179180350E+00 1.642509807128E+00 2.512231126667E+00 7.037102138993E+00 -3.830309898248E+00 2.546625645787E+00 5.924773040828E+00 -2.974206023102E+01 -1.038250830916E+02 2.026140730380E+02
 -2.684503060937E+01 1.800804050839E+01 7.114325058617E+01 -1.918109965924E+00 -6.180855877323E+00 3.177150893482E+00 -1.183219758653E+03 -3.908042527051E+02 1.250459286924E+02 1.037200944227E+01 -1.115708209332E+01 1.564068117313E+00 -5.169130528700E+02 1.017975466256E+01 3.596051296434E+01 -2.676464901236E+01 3.385388065891E+00 -5.270016356072E+00 2.324885057458E+01 -1.498067016705E+01 -4.611011923675E+00 -8.706821034797E+00 2.046251989152E+01 8.076832286769E-01 2.732650446197E+03
 -2.863847729637E+00 5.378547428582E+00 1.722125324053E+01 -5.233739773778E+00 -5.002060234898E+00 6.073133427324E-01 -4.130106017655E+02 -6.904778942741E+02 5.545076097650E+01 6.600304666112E+00 -8.602203822039E+00 -4.725019104978E+00 1.199574817400E+01 -1.633767193260E+03 4.505444821796E+01 6.100031538549E+00 -5.589992377253E+00 9.864205170004E-01 3.266967552871E+01 6.009534387776E+01 1.190996611384E+00 6.431698577743E-01 8.548646114553E+00 4.784009475412E-01 -3.966201209123E+01 2.951474311422E+03
 6.074630066836E+00 -3.233347032324E+00 -4.269392610533E+00 -1.322317756897E+00 4.796830576038E-01 -2.266737694408E+00 1.252353571505E+02 5.585999512056E+01 -9.861895924236E+01 -1.141652033514E-01 1.033180157447E+00 -1.242178177327E+01 3.479044980874E+01 4.614902452822E+01 -8.231786065076E+01 1.026650956805E+01 -1.712250215898E+00 3.154685494292E+00 -1.261502933986E+01 -2.520439000718E+00 1.312686318487E+01 2.455340542327E+00 -2.821807906544E+00 -5.286335317755E-01 -2.290359412447E+02 -8.939852903670E+01 2.062375349863E+02
 -1.245329165970E+01 1.104558194333E+01 5.790147826159E+01 -8.580670497920E+00 -8.499702083003E+00 1.521346511807E+00 -1.333893341863E+00 1.289935348927E+01 -3.999252492009E+00 -1.171389961162E+03 -4.291669749847E+02 1.089347748566E+02 -1.325601591960E+03 4.972309396613E+02 7.581445586125E+01 7.249734371602E+00 -8.525113375270E+00 -2.251143232818E+00 4.251368914722E+01 4.805911025138E+00 -2.433152826604E-01 -2.062780625273E+01 -1.593116231240E+01 2.540226837630E+00 4.392387943212E+01 -4.016916763078E+00 -3.055804818573E+00 2.854654427337E+03
 -5.926539756179E+00 1.578697176200E+00 1.713510430817E+00 3.461901961126E+00 3.417210578323E+00 1.936762251302E-01 2.768430461477E+00 -2.604805988858E+00 1.177607278189E-01 -4.059287445424E+02 -6.964518298722E+02 6.984306712458E+01 4.921077015289E+02 -8.222276139743E+02 -1.096729374051E+01 -1.327686719615E+01 3.885412398611E+00 -1.701143289938E+00 -5.298818265829E+01 7.673434630027E+00 2.215401899232E+00 2.975425053097E+01 5.715006621865E+01 -1.182157677532E+01 7.456296994446E+01 2.442945733861E+00 -4.606638635153E+00 -1.022784965307E+02 2.839169727836E+03
 2.131683631092E+00 -9.171642707406E-01 2.429323638592E+00 4.199516652689E-02 1.138499270885E+00 2.723887948445E+00 6.390987885528E-01 -4.686604874112E-01 -1.309665942904E+01 1.081590173920E+02 7.071648279888E+01 -9.813275345445E+01 7.650891935587E+01 -1.257714416458E+01 -8.328474743375E+01 5.951759775744E+00 -2.156621062306E-01 2.196393420021E+00 -3.956434854886E+00 -3.679632376998E+00 1.266064071906E+01 4.298101085553E-01 -3.677073835654E+00 5.499134829069E+00 -4.818615031455E+00 1.359871268734E+00 1.183332794611E+01 -2.103373800042E+02 -9.054049588333E+01 2.060949466903E+02
 3.222966743050E+00 -1.885156739699E+00 -1.431102613681E+01 2.015628616521E+00 2.688977519969E+00 2.971280585341E-01 1.060397584157E+00 -3.032812655310E+00 -2.986718823822E-01 -2.419425631272E+00 3.917895402514E+00 1.058587255588E-01 -1.024794319733E+00 -2.649431117143E-01 -1.122546028573E-01 -2.126113869329E+00 1.146245706119E+00 -7.208616417759E-01 5.100581665875E-01 -5.845577711907E-02 1.158583597864E+00 -3.115850973186E-01 -3.644444635945E+00 9.964840454053E-02 7.047709771048E-02 1.089138679806E+00 3.907696323083E-01 1.756651992745E+00 -9.404694271097E-01 4.004412813675E-01 2.804392194201E+03
 1.828909496691E+00 -1.273040399634E+00 -1.326931022386E+00 2.253835112171E+00 2.053732168869E+00 1.602007697887E+00 7.903002319331E-01 -2.365442780363E+00 -7.509326128011E-01 -1.967211476634E+00 2.915660730265E+00 -4.214083664756E-01 -9.902467689136E-01 -2.153922183674E-01 -2.750643819855E-01 -4.074240328394E+00 1.990761531220E+00 -1.536297172527E-01 2.231904412492E+00 8.899363363320E-01 -1.017214746080E+00 -7.325573885235E-01 -2.365245316921E+00 -4.208348904265E-01 -9.109050281135E-01 1.012414122132E+00 4.850835360494E-01 1.414274075366E+00 -1.270131745266E+00 1.875156010725E-01 2.431179431181E+00 2.800450088478E+03
 2.288135954931E-01 -6.515794148682E-01 -2.758701750058E+00 9.565510211591E-02 1.433351767877E+00 1.068921924150E+00 1.036616544314E+00 -4.397591642855E-01 2.417053347786E+00 -3.865954621329E-01 6.676530213773E-01 1.918406192753E+00 -1.083481021769E-01 -1.113815380324E-01 -6.086918000579E-01 2.280631366118E+00 -1.201864170951E+00 4.559141672078E+00 -2.326416725735E+00 -1.404455820689E+00 -1.683647103803E+00 4.214397139949E-01 -9.707888637241E-01 1.002067668042E+00 -7.587587753286E-02 2.878688870634E-02 -2.009278901236E-01 1.906404110489E-01 -2.911180363510E-02 -6.078171200383E-01 9.478227726340E+01 -4.690208533146E+01 1.984870772133E+02
 -4.152084058449E+00 2.845483123777E+00 1.787032023851E+01 -1.818904113312E+00 -1.105132701997E+00 -1.650084512107E+00 3.567147414283E-01 2.095443994724E+00 -3.572219155748E-01 2.532272515291E+00 -2.297265360288E+00 -2.237225783373E-02 1.061849169315E+00 3.893362528229E-01 4.190725074154E-01 3.076129943628E+00 -3.819516200215E+00 1.260751569548E+00 7.880421326708E-01 3.653960408035E-01 1.267142527145E+00 -5.559227048924E-01 3.363074701949E+00 2.351034698399E-01 -1.663012452262E+00 -8.710914008874E-01 7.861412365186E-02 -1.853174141878E+00 1.615434667175E-02 -1.656447371828E-01 4.152647740055E+01 7.206786416194E+01 -5.816632223472E-01 2.776544982926E+03
 1.778048655977E-01 -8.584979411633E-01 -1.595182191128E+00 6.169352174111E-01 3.557008134278E+00 -8.834895884948E-03 2.508913689976E+00 -2.197332225677E+00 -2.283237993116E-01 -7.550081233543E-01 3.452993434787E+00 1.513365679090E-02 -2.079047905128E-01 7.254933880535E-02 -2.067310134464E-01 3.990147007720E+00 -2.708456785714E+00 2.410157910843E+00 -3.130864650952E+00 -2.095053535017E+00 1.735406448938E+00 -2.483446525369E-01 -2.551705653114E+00 -4.228105424364E-02 -1.022600403958E+00 2.849483639394E-01 4.029676204348E-01 2.556504573295E-01 -8.409858469507E-01 4.271230737523E-01 -9.666517259802E-01 -1.773192903734E+00 6.140033091105E-01 2.793136149292E+02 2.860853264831E+03
 -5.512809339570E-01 2.927223156159E-01 1.178966939611E+00 -1.021284149705E-01 6.167672698011E-01 3.835648732519E-01 2.203740379651E-01 5.363178801371E-02 3.623028243567E-01 2.818343756361E-02 6.351415099588E-02 1.554073346634E-01 1.310509167921E-01 2.155518844465E-01 -2.197105971486E-01 1.705040868485E+00 -8.806065873524E-01 1.319752467248E-01 -9.171624384437E-01 -6.851304503338E-01 -3.208712012391E-01 9.677696976628E-02 -1.615738720659E-01 -7.045818441999E-01 -1.456924790325E-01 -2.521058030977E-01 -1.488374089895E-01 -8.091908282765E-02 3.298328804446E-02 8.214006707547E-01 1.022242739896E+00 2.719908566784E+00 1.090875648047E+01 8.714354799349E+01 -3.834425657189E+01 1.532988426703E+02
 4.446024228720E+00 -5.894451911359E+01 -2.781398076591E+01 4.353817864883E+01 1.746397587816E+01 5.591708937281E+00 7.832587821430E+00 -1.876235735773E+01 -3.631256017885E+00 -1.122458071865E+01 2.247686955446E+01 -3.840502981139E+00 -2.743184058671E+00 -2.663088404013E+00 2.418954875627E+00 -1.174441142876E+03 -4.623073513168E+02 -7.603682051194E+01 -6.190464991062E+01 -2.829576770371E+01 2.472059517218E+01 6.757081090472E+00 -2.671488563706E+01 1.343158268731E-01 1.261598633666E+01 9.904773541112E-01 -3.499834925407E+00 3.706508371490E+00 3.113034225417E+00 -1.786972299981E+00 -2.024478930956E+01 3.493575353751E+01 -3.749608833277E+00 1.044768155041E-01 -2.225581932371E+00 -3.852830981586E-01 2.724598613382E+03
 6.663970430662E+01 4.433239039609E+01 -5.376213597392E+01 -5.731761893437E+01 2.734496856731E+01 -1.018637975056E+01 1.189058834790E+01 -2.637888517690E+01 -3.713411176292E+00 -1.814439033847E+01 3.402816611058E+01 -4.655293504016E+00 -6.153400940199E+00 -3.117171520014E+00 1.076243074202E+00 -4.143696621308E+02 -7.530903506052E+02 5.717900402722E-01 -3.984015708779E+01 -2.367943812581E+01 9.437007281335E+00 3.489693636160E+00 -3.513861300088E+01 -4.533165543744E-01 8.916492767149E+00 5.901938774726E+00 -6.919855484933E-01 1.059941682316E+01 -2.085922546918E+00 -7.580065712672E-01 -3.497183870778E+01 5.443914368862E+01 -5.120778738252E+00 1.758612061732E+00 -2.327873840507E+00 -2.058799012877E-04 2.785044096537E+00 2.796149806979E+03
 -5.037852438766E+00 -1.523105410902E+01 1.918681338823E+01 8.885575802535E+00 -2.311039901549E+00 1.233049509567E+01 8.689703629203E-01 -2.261118662497E+00 2.446187058789E+00 -1.098618669904E+00 4.749166809177E+00 2.453697879425E+00 -9.108537412897E-01 -9.258629416776E-01 1.076025018274E+00 -9.603680890922E+01 2.671608273286E+00 -1.052403189236E+02 -1.073113874643E-01 -4.656839589802E-01 1.913499588225E+00 -3.063833443835E+00 -2.195866366264E+00 7.091281766356E+00 2.275466335112E+00 1.389235518716E+00 -2.022270729956E+00 2.084020267254E+00 -8.482728121653E-01 -3.529876570125E+00 5.978592049425E-01 -1.531888543246E+00 8.950026256615E+00 6.761631123478E-01 -1.356653720861E-02 -6.527510285492E-01 2.014908004471E+02 -3.786879759585E+01 2.173599048232E+02
 -1.024424688919E+01 4.775143605563E+00 4.904993921925E+01 -2.554959575752E+01 -3.488084347279E+01 -3.241292384152E+00 5.116356973211E-01 6.451543918149E+00 -8.326237493686E-01 7.516485067330E+00 -7.431171178370E+00 1.035127663872E-02 3.350372699673E+00 1.037323776079E+00 1.078575223964E+00 1.701856164981E+01 -1.090402933244E+01 7.353822263834E+00 -5.657847817411E+00 -1.582632232513E+00 2.771586564732E+00 -1.475356359846E-01 9.045934571481E+00 1.701115803796E-01 -2.645399546901E+00 -3.216102481352E+00 -6.522328502379E-01 -5.808984983796E+00 1.433894671971E+00 -6.141100500418E-01 4.094585977676E+01 -6.808245836195E+01 2.023763988881E+00 -2.428986916581E+01 3.963402594897E+01 -2.259182907071E+00 3.879009925828E+01 7.194091778292E+01 -1.037932857971E+00 2.765465906938E+03
 -1.551474738732E-01 1.242126504551E+00 1.230345853005E+01 3.229231771610E+01 5.516581356902E+01 5.685735269372E-02 3.595492836705E-01 1.240312498926E+00 -3.744300414484E-02 1.473982749236E+00 -1.422141134179E+00 2.773093606186E-01 7.251823776914E-01 2.948715765225E-01 -6.772098660185E-02 1.342324310695E+00 -2.887813004411E+00 -3.441019682499E+00 -1.968868999023E+00 -3.156596152740E-01 7.559142826145E-01 3.285460450165E-01 1.391160092480E+00 1.036355818326E+00 -1.234341341636E-01 -6.586760797834E-01 1.671987682526E-01 -1.283850917621E+00 5.691951877163E-01 2.249730113447E-01 3.414057940551E-01 3.573972622641E-01 -4.033503428970E-01 -4.266777397865E+01 7.395430255865E+01 -2.768757343278E+00 -5.123191765222E-01 8.272490511099E-01 2.568309913646E+00 -3.895311809387E+01 2.754834510935E+03
 -2.176330014994E-01 -1.391319392081E-01 -6.791332509522E-01 -2.881183607900E+00 -3.512109999642E+00 1.025006885563E+01 1.528605264921E+00 -8.277375096507E-01 3.632765845779E+00 -6.928927922210E-01 6.428332091007E-01 2.887601292264E+00 -2.359076036862E-01 -1.349018691576E-01 -9.153707583241E-01 3.024581054538E+00 -2.377728267459E+00 -9.781008061676E+00 -2.903440052112E+00 -1.874229701149E+00 -3.172337514789E+00 8.121793403846E-01 -8.044932728872E-01 4.665364584347E+00 -4.145449338732E-01 1.252085334892E-01 -5.437009071502E-01 7.281904454797E-01 -1.845395909817E-02 7.865839765460E-04 1.390293517305E+00 -2.574125737160E+00 1.068953141064E+01 -1.522720328061E+00 2.279112012768E-01 1.295372251801E+01 1.315849184888E+00 5.485042459695E+00 8.770697511143E+00 9.558661771619E+01 -5.290630051082E+01 1.915769254694E+02
 9.112010092877E-01 -1.024197408913E+00 -1.173936975430E+01 1.368625028285E+00 4.694006773486E-01 1.273293486396E+00 -3.026947807162E-01 -9.156699554722E-01 3.606605802689E-01 -1.394967595106E+00 1.031464638619E+00 1.559629928487E-01 -6.748813165768E-01 -1.092084796466E-01 -3.977007100091E-01 -4.494152583360E+00 3.534769055892E+00 -8.025039342445E-01 2.734256643239E+00 1.080938304189E+00 -1.125936094368E+00 -1.618716960685E-01 -1.297093161097E+00 -4.520523301551E-01 9.470917978107E-02 6.150103763685E-01 1.275551789235E-01 1.192760199539E+00 -4.668776965133E-01 3.752603481375E-01 -1.234536141027E+03 4.321714271053E+02 -4.695949174132E+01 -5.046623104844E+02 -1.493286178220E+01 -1.372403765975E+01 8.690472744997E-01 -8.787728744214E-01 -1.522738822754E+00 8.734201944772E-01 2.261923983189E-01 1.351424470515E+00 2.837893458287E+03
 -2.103522939229E-01 1.323560143154E+00 -3.498097922777E+00 -9.924007869448E-01 -2.762983050387E+00 -9.534823300406E-01 -1.764460566009E+00 2.102426385083E+00 1.073783386698E+00 9.169208027839E-01 -3.017956551301E+00 5.353265128231E-01 3.778838520589E-01 1.938367494653E-02 -1.173884523036E-02 -2.068965117574E+00 1.009487675806E+00 -7.372974145708E-01 1.336839431310E+00 7.160483190772E-01 -9.133835277550E-01 4.903680222316E-01 2.097667152508E+00 4.502947653852E-01 1.048235726618E+00 -4.616878209732E-01 -3.166806676067E-01 -5.124390455357E-01 9.787759609122E-01 -3.144750041681E-01 4.349287486654E+02 -7.287215952572E+02 2.628876486562E+01 -2.490632660798E+01 -1.540718087121E+03 2.588412152872E+01 1.042144039963E+00 2.269789933940E+00 2.833159189660E-01 -1.798029008180E-01 -1.660718330672E-01 -3.070188512648E-01 2.984405118484E+01 2.892660455099E+03
 4.236538304443E-02 1.233959645649E-01 1.583308815901E+00 1.017166183757E-01 -1.317747661897E+00 -6.017118413236E-01 -5.019573778313E-01 3.465202374456E-01 -7.423911972400E-01 3.070720718502E-01 -6.352527111918E-01 -3.330187452953E-01 -7.826198128244E-02 -2.434545523642E-01 3.651756130245E-01 -2.982987342609E+00 1.198513142951E+00 -5.859611359495E-01 2.286342509210E+00 1.508451006569E+00 2.039123202354E-01 -3.548975044390E-01 9.588933215703E-01 8.646454465465E-01 -1.384371894475E-01 2.809897214664E-01 2.755926477028E-01 -8.492546789911E-02 -1.183081591296E-01 -1.092083643206E+00 -4.614299265182E+01 2.564958618409E+01 -8.726489229672E+01 -1.370278081638E+01 2.663808556572E+01 -7.829836890197E+01 7.612403886908E-01 7.329161838447E-01 5.365311085163E+00 7.768608762978E-01 -1.496472441092E-01 -1.143741917531E+01 8.558291827974E+01 -4.930793343216E+01 1.885463967400E+02
 6.620461784124E-01 8.064450685033E-02 1.176884117462E+01 -2.293143612670E+00 -3.822760881229E+00 5.982775084786E-01 -1.908660128323E+00 3.300094118662E+00 -3.433622130244E-01 2.299579957668E+00 -4.230738886726E+00 -1.412277216293E+00 1.031982422793E+00 1.394558604757E-01 1.208148264301E-01 -1.892197559748E+01 3.713875132605E+01 -5.288917773146E+00 -2.649242333879E+00 -7.987553935380E-02 -4.660683794853E+00 1.279231461713E+00 2.987269383743E+00 -8.153339396645E-01 1.946188865825E+00 -1.057402694887E+00 -5.376435619561E-01 -1.473183631178E+00 1.868176031054E+00 -7.033332395261E-01 -1.216807654783E+03 -4.266723375716E+02 -3.525580011114E+01 -1.301958540565E-01 5.846369842331E-01 7.522436204628E-02 -1.167443394934E+03 4.240688244062E+02 -8.981580734086E+01 -4.718375902009E+02 -8.155173120214E+00 -1.786800449312E+01 -1.947536589275E+01 -3.481105825255E+01 -2.934542602331E-01 2.742079666516E+03
 -5.535894415152E+00 3.608992937589E+00 -9.188308038107E-01 -3.695935711084E+00 -3.431322699543E+00 -4.517670675026E+00 -9.072335949605E-01 4.141044344024E+00 8.189191245962E-01 3.551281316586E+00 -4.716900093181E+00 6.480322050621E-01 1.553212590470E+00 5.194698309715E-01 3.048211403403E-01 -3.122219333604E+01 5.708042985911E+01 2.287121889465E+00 1.677261151818E+00 3.511557780407E-01 5.323743969455E-02 1.573089625979E-01 4.914267137360E+00 4.245974659562E-01 -3.563893909904E-01 -1.347510175104E+00 -2.442006891345E-01 -2.218118545269E+00 1.050971491722E+00 -1.847059797790E-01 -4.302325811826E+02 -7.158808856171E+02 2.922098866362E-01 -6.109543506541E-01 3.043639763220E-01 -4.037055995653E-01 4.241234875654E+02 -7.064898312732E+02 4.177389757484E+01 -2.231678772765E-01 -1.497051232570E+03 2.313780622663E+01 3.475890130543E+01 5.910286692311E+01 6.262515390578E-01 7.042558537571E+00 2.805394756645E+03
 -1.286909367619E+00 9.995230064946E-01 8.760342496519E+00 -2.551709702384E+00 2.975499586604E+00 -9.333135711376E+00 9.866457402931E-01 3.535831694721E-01 -1.947924052359E+00 6.458804487196E-01 -1.983382454866E-01 -2.320653182450E+00 2.878441551216E-01 9.039183472271E-01 -8.749729188939E-01 4.902446867145E+00 2.822988910239E+00 1.016214800492E+01 -2.647181719824E+00 -8.428336349700E-01 -1.196951438111E-02 7.430900281877E-01 -4.206153166799E-01 -3.851846347393E+00 -7.652077837266E-01 -5.914653527213E-01 8.376879796943E-01 -7.906278890070E-01 1.614374136499E-01 4.519537292250E+00 -3.947066281956E+01 -3.921588854009E+00 -8.401026104731E+01 2.089775806397E+00 -3.137729981761E-01 -8.900924356325E+00 -8.716286656209E+01 3.906319206662E+01 -9.070670742201E+01 -1.762235567712E+01 2.982746045299E+01 -8.219938931187E+01 -1.025755169639E+00 4.415556097010E-01 7.602989475683E+00 1.381223961704E+02 -6.664642028819E+01 2.056969163365E+02
 6.789525796465E+00 -3.181446692237E+00 -1.664598950577E+01 8.385321892107E-01 -2.747158908067E+00 1.261102273961E+00 -3.701475097558E+00 -4.015793980961E-01 2.684474677533E-01 -2.424861109189E+00 -9.005017836530E-01 -3.073006400153E-01 -8.541714698228E-01 -7.399279162120E-01 3.990923866002E-01 -4.209409283182E+00 5.570930674961E+00 -4.675837274300E+00 -1.823713745438E+00 3.963901129675E-02 -2.732611545221E+00 1.802803528455E+00 -2.105544706359E+00 -1.183095552467E-01 5.135064451364E+00 5.099115350920E-01 -1.366795249672E+00 2.037010742775E+00 1.854183410448E+00 -6.234405721064E-01 1.162983857109E-01 1.645241282068E-01 6.641133372892E-01 -1.500118467275E+03 -5.290522604199E+02 -4.167742945046E+01 9.718449871450E-01 4.991005230644E-01 2.401138794720E-01 -1.275371690343E+03 4.339189648977E+02 -5.041429786080E+01 4.851188664038E+01 -1.790562992802E+00 1.482371588120E+00 3.784664911583E+01 3.223420446750E-02 -1.240902287790E+00 3.066199910608E+03
 -1.510003938058E+00 3.085943639846E-01 1.268640588784E+00 8.695464830884E-01 1.520065137782E+00 1.630248986609E+00 1.036932547060E+00 -6.591484830575E-01 8.704317861370E-02 -3.943931598524E-01 1.263524493679E+00 3.363119137658E-01 -2.797990917110E-01 2.216277251731E-01 -4.476763606013E-01 -3.245958330853E+00 1.698544052338E+00 -1.472378496222E+00 4.029268726481E+00 1.638771475867E+00 -1.730478886962E+00 -8.819004082596E-01 -3.128964689245E-01 -6.468705867880E-01 -1.901917578442E+00 4.282894923646E-01 4.598681711364E-01 5.416745381515E-01 -1.234113452250E+00 7.260304032764E-01 -4.553416755139E-01 -6.135194251398E-01 -1.553375959149E-01 -5.397867856654E+02 -8.715202146688E+02 -4.973890765420E+00 6.363292153694E-01 -8.417971215722E-01 -6.377699413315E-01 4.190054107520E+02 -7.207330925698E+02 2.735591065256E+01 -8.568330974042E+01 2.374241635459E+00 -3.524430046075E+00 7.248004832992E+01 2.837829802114E-01 2.076257067949E+00 9.360635115303E+01 2.539174350926E+03
 1.503866139815E+00 -1.054260036809E+00 -3.317832142029E+00 -2.233943019473E-01 -7.724315119829E-01 4.050439788691E+00 1.196028671023E-01 -7.254200389634E-02 6.094019802344E-01 4.495475423772E-02 -8.390154801025E-02 6.835360969163E-01 -1.423528602488E-01 -4.947107120076E-01 7.545631884944E-02 -3.930074992614E-01 3.166853159985E-01 4.948671762325E-01 -1.473783904777E+00 -2.200016202868E-01 7.933443271096E-02 1.712929017163E-01 2.267024238829E-02 2.276209752591E+00 5.014930512011E-01 2.648128350070E-01 2.286773971704E-01 -1.951057901065E-01 2.171283632098E-01 -2.282266670930E+00 2.140104780197E-01 -9.974757313317E-02 -1.017843123294E+01 -4.163623293368E+01 -5.502227796277E+00 -7.260667426181E+01 -2.947032266087E-01 9.658789121143E-02 6.110875587474E+00 -4.997638165759E+01 2.709961023304E+01 -7.912510688814E+01 2.627360337668E+00 2.950783466520E-01 1.233061899219E+01 1.684977787926E-01 2.076166413886E-01 6.257040987935E+00 1.024441569574E+02 -3.769608227003E+01 1.572120282833E+02
 1.339383629454E+01 -6.642415324315E+00 -4.766011575143E+01 -1.209287805033E+03 4.508618405658E+02 -8.126690323609E+01 -1.521596902462E+00 -7.303948255811E+00 7.367870166027E-01 -8.677107442864E+00 7.622560153805E+00 1.077816414319E+00 -3.694883125237E+00 -1.324437279585E+00 -9.172499609720E-01 2.564017311302E+01 8.008093466478E+00 -5.231266143069E+00 1.506425860399E+00 4.052707066741E-01 -6.913869488050E-01 -1.944823504254E+01 2.562306842334E+01 -2.140485342751E+00 4.417577011630E+00 3.140763530948E+00 1.047636981364E-01 6.126526586478E+00 -7.708871609072E-01 3.955405047882E-01 -1.304865954967E+00 -9.353371406635E-01 -2.138531207309E-01 1.699424730498E+00 4.082879694908E-01 2.252686875509E-01 1.058020497147E+00 -6.058979822526E+00 3.810347435954E+00 -1.132721943098E+03 -3.880153424528E+02 -3.178733064954E+01 -1.027651625841E+00 6.987596781913E-02 -5.068785421382E-01 3.712113233288E+01 1.168086612467E+00 2.943623483974E+00 -2.026136292896E+01 -3.270670581077E+01 -7.014384499150E-01 2.712919939129E+03
 4.172766956711E+00 -4.198949065519E+00 -3.221637986657E+01 4.612211373403E+02 -7.347367049232E+02 6.440657442306E+01 7.568937450910E-01 -6.396049274704E+00 -1.432931765568E+00 -5.888236386864E+00 7.980042377988E+00 6.773186832197E-02 -2.817107636076E+00 -8.396837549468E-01 -9.593569312043E-02 5.768031724193E+01 4.898358290041E+00 3.261491485651E+00 5.658755313860E+00 1.398584800195E+00 8.246172280513E-01 -3.370878204316E+01 5.112037152228E+01 -1.122359196849E+01 -1.690103493710E-01 2.827002178212E+00 6.624695755475E-01 4.564968315325E+00 -2.676395137940E+00 -1.339406792458E-02 -1.117859405349E+00 -1.304340342698E+00 -6.485479107989E-02 9.912331161033E-01 -4.975351235559E-01 2.881029282143E-01 1.655163939282E-01 -5.989218133549E+00 -4.243038857238E-01 -3.835903315564E+02 -6.706068799569E+02 4.093276127462E+00 -8.329907392334E-01 5.605126904937E-01 -1.051297378101E-01 -6.418453667816E+01 1.905656731762E+00 -4.072091130569E+00 3.129016746214E+01 5.680464550748E+01 -1.167469722953E-02 -5.717647214329E+00 2.815813673639E+03
 -2.154387122051E+00 3.326590701358E+00 1.950220285039E+01 -8.475026753638E+01 6.208959466688E+01 -9.345588124798E+01 -4.151784868464E+00 1.714807419411E+00 -1.054665385990E+01 1.055637851511E+00 -3.149622976269E+00 -4.129603581045E+00 3.234441128115E-01 9.566366009442E-01 2.114021417512E+00 -8.835128670269E+00 2.349622757380E+00 8.712437235163E+00 9.594731764723E+00 6.321007580626E+00 6.515953535957E+00 3.227923511850E-02 8.054921978301E-01 2.925496629474E+00 2.598337337919E-01 -1.914632076283E-01 7.280220548194E-01 -4.117886882803E-01 4.081567884068E-02 5.711204805778E+00 1.148000364389E+00 4.398218802939E-01 1.406524380942E+00 -5.609117625073E-01 5.596537130693E-01 6.264020261695E+00 1.080638314189E+00 1.509535480330E+00 -1.267892732557E+01 -3.085204116673E+01 -1.088557044236E+00 -8.509512909512E+01 2.631049806039E-01 -1.808786549181E+00 -8.589462401046E-01 1.639547505946E+00 2.080398353645E+00 1.392255736726E+01 -4.760634682696E-01 -1.106032337418E+00 5.941174324226E+00 1.309200845650E+02 -1.158955474079E+02 2.144315415504E+02