#BIOSYM hessian 1
@Type: Hessian Update
@Units
 distance: 	A
 energy: 	Kcal/Mol
#header
@natom 67

#label
C1      C2      C3      C4      C5      C6      C7      C8      C9      C10     C11     C12     C13     C14     C15     C16     C17     C18     C19     C20     C21     C22     C23     H24     C25     C26     C27     C28     C29     C30     C31     C32     C33     C34     C35     C36     C37     C38     C39     C40     C41     C42     C43     C44     C45     C46     C47     C48     C49     H50     H51     H52     H53     H54     H55     H56     H57     H58     H59     H60     H61     H62     H63     H64     H65     H66     H67

#element
C  C  C  C  C  C  C  C  C  C  C  C  C  C  C  C  C  C  C  C  C  C  C  H  C  C  C  C  C  C  C  C  C  C  C  C  C  C  C  C  C  C  C  C  C  C  C  C  C  H  H  H  H  H  H  H  H  H  H  H  H  H  H  H  H  H  H 

#matrix
201
 2.780190531525E+03
 -2.234278391165E+01 2.816444646723E+03
 2.747861820701E+00 1.071437043525E+01 1.930963033148E+02
 4.164535604967E+01 6.928155568451E+01 7.278427160998E-01 2.790179294500E+03
 4.031506508936E-02 8.905707680450E-02 -3.431896024114E-01 -2.051163958133E+01 2.760559056951E+03
 6.002306265054E-01 2.883025952100E-01 8.508392245785E+00 2.206203280605E+01 2.485833691835E+01 1.912607112048E+02
 -1.879536486493E+01 3.547647633218E+01 4.019062857026E-01 -1.291452973558E+00 -1.506713591748E+00 -1.538900958812E-01 2.808961250884E+03
 -3.796152988170E+01 5.458053438375E+01 1.304120048815E+00 4.803411178702E+00 1.133124179160E+00 1.091050076872E+00 -3.410421689181E+01 2.805498657660E+03
 9.491121727255E-02 5.556911673868E-01 1.003606630149E+01 5.324005940027E-04 -2.068476290946E-01 -2.517492741726E-01 -1.738172181278E+01 2.740641918160E+01 1.967958330070E+02
 3.897269695754E+01 -6.908503614722E+01 -1.274811087962E+00 -1.870883372083E+01 3.294912468760E+01 8.128226763274E-01 4.256947514541E+01 6.980374611510E+01 1.092015771806E+00 2.785870065178E+03
 -1.001252315378E+01 -7.698700312241E+00 9.603584880363E-01 -2.214115077281E+01 5.842152001782E+01 2.209431229881E+00 4.526052627362E+00 -2.316970557593E+01 4.558180517327E-01 -2.337764350800E+01 2.765298690330E+03
 -4.039723418439E-01 -2.495536809270E-01 9.031821716961E+00 9.280463473022E-02 1.155058398382E+00 8.733724484358E+00 -3.829548583493E-01 -1.426307830072E+00 8.097609718139E+00 1.560558634144E+00 3.539913483377E+01 1.956590981547E+02
 4.718152239021E+00 4.455423480578E+00 -4.276410276667E-01 -5.925653721842E+00 6.401652539737E-01 -8.285315827956E-01 3.919409637860E+01 -6.214363860800E+01 -2.118162478088E+00 -1.968026368262E+01 6.646951386528E+01 1.392383886418E+00 2.612165570004E+03
 -8.841996651667E+00 -7.616144038317E+00 6.569107593213E-01 1.046646016446E+01 -4.220987752237E-01 2.085771119675E+00 5.170406983992E+00 -1.997021490364E+01 7.282609476694E-01 -3.952543610172E+01 9.905419810084E+00 3.212928651060E-02 -2.019453665106E+02 2.856544914335E+03
 -2.783419707351E-01 -3.866870664769E-01 -1.124510665255E+00 5.374351899016E-01 -3.578539634828E-01 -5.612147282623E-01 -1.138427916827E-01 -1.296291149818E+00 8.339517883725E+00 -6.763269317310E-01 -1.887260886094E+00 1.215644114405E+01 -1.761072469807E+01 4.614118153786E+01 1.606320970792E+02
 -1.230926031415E+03 4.469519093626E+02 -1.100752532088E+00 -4.650881658983E+02 -8.051667686295E+00 -2.083635941259E+00 -2.886942644055E-01 8.000729560497E-01 -4.894240294115E-02 1.773086327072E-01 2.415009514686E+00 -3.507824027338E-01 -7.487287567123E-01 1.932829392009E+00 7.023920861896E-02 2.822072704913E+03
 4.412882332298E+02 -7.401561113819E+02 -2.306107231913E+00 -6.681037509864E+00 -1.431832278870E+03 -1.076594845622E+01 9.420518066572E-01 4.079570579093E-01 2.168016575047E-02 9.241348854715E-01 1.343221519516E-01 3.575599910205E-01 -9.100537600535E-01 1.252296156492E+00 -1.136882448863E-01 -6.294287379506E-02 2.780279019656E+03
 -2.357948286508E-01 -2.196313509319E+00 -8.245632944854E+01 -2.852399294640E+00 -1.055671140901E+01 -8.089508207305E+01 -1.628412036077E-01 -6.752848563955E-03 6.450041798882E+00 3.277389918159E-02 -3.836666745626E-02 -1.046090614679E+01 -3.278072583654E-01 3.793178380126E-01 -2.918104955063E+00 9.839158940835E+00 1.730449944109E+01 1.943475671126E+02
 -1.191509235819E+03 -4.144999270703E+02 -1.661393608466E+00 6.265849192588E-01 6.732474343524E-01 2.124160274969E-01 -1.253433877670E+03 4.544179556366E+02 1.082719854102E+01 -4.942909905291E+02 -1.499188103562E+01 6.580903301485E-01 2.056173485330E+00 -1.298586044482E+00 -6.347102348562E-01 -1.972334883015E+01 -3.313835286781E+01 -2.200206586269E-01 2.817510152860E+03
 -4.067077274739E+02 -6.935786332536E+02 -5.832803719525E+00 -8.406140625276E+00 -3.802584005298E+00 -1.333010193440E+00 4.510386633836E+02 -7.325341356824E+02 -1.055081126256E+01 -1.297819079384E+01 -1.475123991721E+03 -1.778126877465E+01 -1.815151724335E+01 3.200981124517E+01 2.650773612430E+00 3.303665187612E+01 5.826415155512E+01 8.781219807787E-02 -2.877500289801E+01 2.816193728815E+03
 -2.753548126021E+00 -4.063904911903E+00 -8.184255047838E+01 -6.852525740065E-01 3.335048601952E-01 -9.180270457272E+00 1.177857192124E+01 -9.841371141512E+00 -8.615344770217E+01 3.397065853491E-02 -1.990317553803E+01 -8.575060103758E+01 7.578911274990E-01 -1.038059056040E+00 -6.680461529144E+00 3.829107555574E-01 -3.878751645629E-01 7.364362279815E+00 -9.677243005506E+00 3.387261813805E+01 1.993438084157E+02
 -1.879011289978E+00 -2.987148437121E+00 -5.645479209990E-02 -1.215259751405E+03 -4.251131910355E+02 -1.429741095125E+01 -2.203687861988E+00 -5.303004055088E+00 -2.466099997740E-01 -1.225597385869E+03 4.301040671695E+02 3.432507044348E+00 9.147018093034E+00 -1.613353705308E+01 -5.763907915881E-01 3.734845701924E+01 1.299071532185E+00 4.913200043159E-01 4.339212125633E+01 6.468514408755E+00 8.037960800312E-01 2.795561341446E+03
 5.162279083176E+00 3.780613983409E+00 -5.961219345979E-01 -4.292860393750E+02 -7.046743899270E+02 -1.205545744236E+01 -2.639195371089E+00 1.141804397938E+01 -3.422889296050E-01 4.473198136416E+02 -7.059303718345E+02 -8.668201643548E+00 -1.357849975993E+01 2.497934212965E+01 5.845885355903E-01 -6.824645638162E+01 8.696673228880E-01 -8.268128896959E-01 7.080632907840E+01 -1.819807788534E+01 6.324557483488E-01 -6.856796796916E+00 2.793333150115E+03
 -4.753850151661E-01 -4.245228548862E-02 -1.037040901906E+01 -1.646794862590E+01 -9.949086874677E+00 -8.253423164411E+01 1.001493217763E+00 -4.289853842434E-02 2.098360494152E+00 3.255647218523E+00 -9.206746773552E+00 -8.120244341581E+01 -2.355376075698E-01 8.635110420103E-02 1.252330326121E+01 3.452736436966E-01 -1.183023832097E+00 5.695639735299E+00 1.042175372841E+00 1.132551915813E+00 1.463190620457E+01 1.627732009107E+01 4.620543135670E+01 2.113981414492E+02
 -1.863875561333E+00 -1.625134958753E+00 -1.950001931070E-01 2.381726955721E+00 1.196249199851E+00 3.923632806806E-01 -1.198157347332E+03 -4.098145527014E+02 3.362027397929E+00 1.142325182835E+00 -9.420669846057E+00 2.236387204149E-01 -5.246382524139E+02 -9.866132293366E+00 4.000042402348E+00 2.719863685065E-01 -3.426353284322E-01 -3.181271462377E-01 -2.094436271421E+01 -2.611764187582E+01 -1.808971563923E-01 -1.163640457718E+00 4.136742499616E+00 7.617643865516E-01 2.775992962840E+03
 4.764310729612E+00 5.061544074207E+00 -2.557772469411E-01 -6.306883915372E+00 2.920391747809E+00 -1.138039219290E+00 -4.150372154929E+02 -6.855366609148E+02 -4.870939920107E+00 5.371769508917E+00 3.050632167389E+01 5.933414674863E-01 -1.837873203066E+01 -1.605528546077E+03 -2.502337875850E+01 -7.823698080941E-01 -2.492360650696E+00 2.699591814338E-01 3.485461104938E+01 4.080204223836E+01 -2.145263015533E-01 1.503421922527E+01 -1.569609173519E+01 -2.939819728519E+00 -2.044505529896E+01 2.931563232293E+03
 -2.431520198388E-01 -4.459530459579E-01 1.555126638477E+00 1.606853587420E+00 7.461183555719E-01 1.074843109506E+00 3.413317733360E+00 -5.476837575572E+00 -8.859297151240E+01 9.880582990896E-01 -3.167365379979E+00 -6.160964014809E+00 5.632597457882E+00 -2.928585845653E+01 -7.254908777150E+01 -2.066317465933E-01 2.520305836866E-01 -6.708351564500E+00 -8.413058450188E-02 2.886773478118E+00 1.389751177905E+01 -1.402264278475E+00 2.705868784457E+00 5.817550727866E+00 -2.372905980158E+01 4.527794605874E+01 2.067968423908E+02
 -3.333715780129E+00 -1.365603086629E+00 5.898199272280E-01 3.593461535383E+00 4.583705418212E+00 1.317072501370E+00 6.385127064238E+00 -5.579137341121E+00 5.907489252262E-01 -1.191180488196E+03 -4.303263144502E+02 -6.370233922656E+00 -1.313508779480E+03 4.996177739666E+02 1.405312105348E+01 9.543079783995E-01 -1.626415437826E+00 6.678820731798E-01 3.620199853483E+01 1.108070215087E+01 -1.133531348762E+00 -1.617485078288E+01 -2.727564591653E+01 -3.435148104656E+00 4.586842390274E+01 -1.815348389741E+00 -2.111260200194E+00 2.878553779679E+03
 2.207915091002E+01 1.702358532204E+01 -1.900953707311E+00 -2.118255013289E+01 -4.872232973136E+00 -3.426865153488E+00 -1.606958663193E+01 4.729789335379E+01 -1.793801588885E+00 -4.025494626426E+02 -5.781277940054E+02 -6.506874564035E+00 4.506900864457E+02 -7.231530898700E+02 -1.068594704752E+01 -6.342499448134E+00 1.276351137750E+00 -1.305546977988E+00 -6.398891930485E+01 -7.851841025044E+01 3.499884730332E-01 5.637353724519E+01 1.411945598272E+00 -1.275991083276E+00 1.017438094460E+02 -5.623791480060E+01 1.026033152104E+01 -4.590878036630E+01 2.603410023979E+03
 6.041837861339E-01 -3.507243740778E-02 7.249286258247E+00 -1.259466228244E+00 6.155031995071E-01 5.070525594234E+00 -7.280536567991E-01 3.096256679301E+00 -4.053877441439E+00 -4.509696827185E+00 -4.906351805835E+00 -8.684491749315E+01 1.099175652477E+01 -9.764282199393E+00 -8.616679014145E+01 -8.477874621173E-01 3.519142670200E-01 7.040937151528E+00 4.892425565219E-01 -3.624355133500E+00 3.048014703595E+00 -2.841606780757E-01 1.098222491814E+00 -9.870874365479E+00 1.124920636553E+00 -3.393002145341E+00 -8.573522399231E+00 -6.007062339770E+00 4.319647250862E+01 2.146165622380E+02
 -9.881404467515E-02 -1.117434298072E-01 4.663009037331E-02 9.848858421526E-02 7.223195671596E-02 1.293953476205E-01 8.069841254519E-02 -2.658587682951E-01 -3.251570252598E-02 9.647894461402E-02 -6.185741690305E-01 5.085101358308E-02 1.698684795990E-01 -3.563720878181E-01 7.441139206091E-02 -3.609586009446E-02 3.456236452865E-03 7.493120779389E-02 8.298490538888E-03 5.159543830060E-01 -4.739684852877E-02 -2.094889433844E-01 3.119369041601E-01 -2.999743051161E-01 -1.411916533013E-01 1.450291614252E-01 2.741857319524E-01 -1.230362467200E-01 1.277667073997E+00 -2.932014874285E-01 2.810088794854E+03
 -5.657192628072E-02 -1.819101689304E-01 1.006215215075E-01 1.877612889496E-01 -7.632719143436E-01 -2.305896007684E-01 -4.398417963217E-01 -5.181518409895E-01 7.712544234162E-02 -7.221776549600E-01 -1.264798920433E+00 -3.767173354005E-02 9.797037763924E-01 -1.541708855688E+00 -1.120870862788E-01 2.588502910876E-02 3.198665748390E-01 -1.095259651349E-02 7.317587224918E-02 1.980987146497E-01 8.240995163160E-02 -1.436286988865E+00 3.090044167755E-01 5.411394901849E-01 7.231999918580E-02 2.059949509760E+00 -3.538316673523E-01 1.126186163017E+00 9.682951760122E-01 4.721276559954E-01 2.034377480004E+00 2.799844137603E+03
 1.600598680593E-01 2.586041375467E-01 4.533305540598E-01 -6.178150280404E-01 -1.813647218921E-01 -1.271706210723E-01 -7.586380067579E-02 7.398327503509E-01 8.535722750072E-01 -7.620024751309E-02 1.306466836260E+00 -7.790525694970E-01 -6.080819287317E-01 1.006734668181E+00 -7.372142511487E-01 -6.195494148661E-02 -5.207283768184E-02 5.653712276822E+00 1.427280801841E-01 -1.016341820823E+00 1.978104202236E-01 5.198814554258E-01 -4.880214492633E-01 2.041840856327E-01 1.648883223626E-01 -6.116797991923E-01 -4.414117485617E+00 2.868406259676E-01 -3.511822295985E+00 2.732958584481E+00 3.256793497158E+01 -5.112309000005E+00 1.951524205418E+02
 -5.478655507880E-01 -4.610369151197E-01 -1.629801656367E-02 5.887683929762E-01 2.174116942119E-02 1.181976843776E-01 2.606315205544E-01 -1.249775445620E+00 -5.865738946277E-02 -4.503507631442E-01 -3.044756745923E+00 -1.687439018858E-02 1.494966778127E+00 -2.731241443909E+00 -1.954099159021E-02 1.458443922441E-01 -1.559019708396E-02 -8.623720241360E-02 -9.143054136095E-03 1.866942413174E+00 -6.117679347317E-02 -7.846243349493E-01 1.318770894954E+00 3.079384350999E-01 -4.970672445797E-01 1.811234928425E+00 -1.535801417470E-01 -4.109915411281E-01 5.728211785209E+00 1.226306014246E-01 4.159312899414E+01 7.170559687790E+01 4.662527494507E-01 2.782675370607E+03
 -2.665996486835E-01 -3.545152202083E-01 4.031562949810E-02 5.395329937922E-01 -5.421902144712E-01 3.978130886183E-02 -1.488683502532E-01 -9.601228328964E-01 7.465222111711E-02 -5.392430039410E-01 -2.523313095668E+00 -6.020688842341E-03 1.477697505628E+00 -2.561190168297E+00 -2.512090082208E-01 2.788564190610E-02 3.807883071359E-01 7.258688976856E-02 -9.358462179425E-03 1.195316351217E+00 -3.565716645371E-02 -1.685883955942E+00 1.341521690367E+00 3.081721321158E-01 -1.621784507201E-01 2.346712410237E+00 -9.959092036849E-02 7.308608813418E-01 4.614593876383E+00 7.540484322638E-01 -9.856199347513E-01 -1.984407240577E+00 2.435940747375E-02 2.772138124324E+02 2.858217941744E+03
 8.302978762998E-02 1.514240626487E-01 5.017426702431E-01 -5.293555677046E-01 -1.664172812189E-01 -6.984007751129E-02 -6.930807652888E-02 4.937366363781E-01 8.687599823470E-01 -2.143689919728E-01 8.348381827869E-01 -8.455138808678E-01 -4.103736556729E-01 5.146452841618E-01 -8.898714818902E-01 5.966586112259E-02 -1.201999283269E-01 1.221900666964E+00 1.874848192598E-01 -7.313541317318E-01 7.243755316140E-02 3.792983675672E-01 -4.139602655588E-01 8.045442294609E-02 7.840618944186E-02 -1.439326843976E-01 -4.682598990283E+00 3.246190159581E-01 -2.700579535543E+00 3.147767400497E+00 1.657908616829E-01 1.034705665502E+00 1.205339880906E+01 3.997575774253E+01 -9.379381628322E-01 1.508940448125E+02
 -2.004190611701E+01 -3.417467928035E+01 -5.722665013232E-02 3.916000221810E+01 -4.195563196673E-01 -4.149270620422E-01 -3.676979643759E-01 6.347813938227E-02 9.520774718762E-02 5.359357046308E-02 2.815184407321E-01 2.501437332206E-01 -1.957424019862E-01 2.442012791221E-01 -6.475993807726E-02 -1.245778497127E+03 -4.347297939077E+02 -7.643666275476E+00 6.101365173230E-02 -2.739865276297E-01 -1.308538140094E-02 -3.632551587677E-01 -2.944084881073E-02 -4.936833538561E-01 2.384589478486E-01 2.002322694472E-01 5.603549820818E-01 5.050023965933E-01 -2.380911933629E-01 2.874549888242E-01 -1.936811487089E+01 3.387250276331E+01 -4.674483321309E-01 -3.112676508078E-02 4.269154687026E-02 -2.502201018725E-01 2.779062239945E+03
 3.592027751472E+01 6.052852816934E+01 5.118626845802E-01 -6.767796315805E+01 -8.906035702353E-01 -3.262002986782E-01 -6.792254497341E-01 -5.233049964766E-01 3.065170577953E-02 -1.199647489196E+00 -1.478411892509E+00 -2.632206555500E-01 1.532384163050E+00 -2.111077951909E+00 -4.548181376866E-01 -4.397567564112E+02 -7.229277433989E+02 -3.733707891557E+00 3.423436160823E-02 -2.644915457391E-02 2.716172374289E-01 -2.070576842161E+00 7.833590832551E-01 8.737586242298E-01 3.470677516262E-01 2.930812913159E+00 -1.904037090264E-01 1.899723258723E+00 1.139905067224E+00 1.059614745558E+00 -3.246223964047E+01 5.684864883422E+01 2.132071457554E-02 -2.251119263634E-01 -4.453599327431E-01 2.160501551690E-01 1.928738158181E+01 2.801382513502E+03
 3.500580039483E-02 5.386649167441E-01 9.764916504247E+00 -8.568326732364E-01 5.273432604406E-02 9.018040860359E+00 7.512137372972E-02 3.466360630443E-01 -3.502021763307E-01 1.431215677733E-01 9.558174137671E-02 1.098809163416E-01 1.775092221276E-02 1.349307143855E-01 8.319554198837E-01 -6.844849365603E+00 -4.684200144356E+00 -8.324980891281E+01 -1.837567978139E-01 -2.499870426647E-01 5.313187161140E+00 3.793656830271E-01 8.875538958310E-02 5.908918834696E+00 5.606917897282E-02 -4.471768616669E-01 4.881131049792E-01 -3.706315467131E-01 -4.565769710895E-01 -1.431152207509E+00 -1.972182531632E-01 6.426167743287E-01 8.915680256949E+00 -4.846033203156E-02 -2.847844203567E-02 1.691495372648E-01 1.860842698012E+01 -3.798961915399E-01 1.914568830827E+02
 -4.615517299670E-01 -4.130615738823E-01 1.026625178014E-01 -1.913464411234E+01 -3.227503845318E+01 -3.154519559131E-01 -6.150654558092E-02 -1.293850633937E+00 8.009613272431E-04 -1.661129061790E+00 -3.385642925350E+00 -3.080686567152E-01 1.947512750344E+00 -3.062703168213E+00 -1.517993894276E-01 3.793371369809E-01 5.346083019335E-01 1.773860830753E-01 9.777383155014E-02 1.039401251285E+00 1.607401254032E-01 -1.502131832168E+00 1.446374876655E+00 1.129691972891E+00 8.716832648322E-02 2.904831877842E+00 -1.151186818128E+00 1.224154265463E+00 4.330075976292E+00 7.805484190751E-01 3.945413443136E+01 -6.964402461464E+01 3.380276239216E-01 -2.307141556386E+01 3.969313304402E+01 -1.015956460433E-01 3.975010189960E+01 6.635963792015E+01 7.877438663943E-01 2.771725081558E+03
 -5.044211763967E-01 -5.708878142699E-01 -5.155260104914E-02 3.468663644261E+01 5.545553444355E+01 9.612219742089E-01 1.763831819252E-01 -2.027548436108E+00 1.737479539555E-01 -6.782357832107E-01 -4.684451494536E+00 2.467421807607E-02 2.410001548094E+00 -4.159766091962E+00 -5.638984233132E-01 9.735877062376E-02 1.478292942563E-01 -2.588435634222E-05 -1.316956907865E-01 2.757814206604E+00 -5.236566689377E-01 -2.038021698287E+00 2.410730853695E+00 -5.844051133698E-01 -4.836255096333E-01 3.248747467241E+00 1.970539189034E-01 2.763448965762E-01 9.678364546089E+00 1.425874156818E+00 6.471984269048E-02 -2.527811713862E-01 4.129168591356E-02 -4.262160198954E+01 7.375279027091E+01 -1.026173674236E+00 -2.644644514501E-01 -6.035001028553E-01 -3.320048876611E-01 -3.850953685200E+01 2.756387157690E+03
 -7.577976973287E-01 -2.333642596334E-01 -1.738468309308E+00 1.348191228863E-01 9.997621808964E-01 8.379067312102E+00 4.473496855708E-01 -4.315626576265E-01 -3.713944680381E+00 2.199337983807E-01 -1.783540398000E+00 2.398785487462E+00 1.612441090959E+00 -2.294515778452E+00 6.323811794352E+00 6.611910666132E-01 1.282181299552E-01 -1.304462498659E+01 -1.406384150455E-01 1.507199810367E+00 4.054398893483E+00 -1.351391665087E-01 9.555706591149E-01 1.203415621395E+01 1.739340205966E-01 -2.765403680263E-01 1.208079106690E+01 -2.557001102659E+00 6.058803864955E+00 -1.406671842678E+01 3.290574834968E-01 -5.965887252129E-01 8.095894143245E+00 -5.872007176141E-01 4.115597680887E-01 1.083821325054E+01 3.460807178260E-01 2.298747050750E-01 9.828862072958E+00 4.241119678551E+01 6.340846933578E+00 1.943183375970E+02
 5.812121485429E-01 5.310996913934E-01 -2.524427672807E-02 -8.240447319527E-01 -3.127632775262E-01 -1.842678016024E-01 -4.387906896285E-01 1.377866671755E+00 -4.824851050629E-02 -1.913306385194E-02 3.198400526175E+00 1.315883249230E-02 -1.415976598507E+00 2.695663427548E+00 3.338430174896E-02 -6.859338198516E-02 4.749191428061E-02 -1.696536202776E-02 8.401637754873E-02 -2.422497640801E+00 1.884699264368E-01 7.893880235184E-01 -1.556912820174E+00 2.918809769154E-01 6.842447289977E-01 -1.473314035320E+00 1.364357198310E-01 8.089204292200E-01 -6.922633887621E+00 -1.409606386926E-01 -1.235585596967E+03 4.332397769243E+02 -1.508980686836E+01 -5.077342855458E+02 -1.555594237206E+01 -5.656037125397E+00 -1.622561771457E-01 2.112974431029E-02 5.703090963413E-02 1.929190979832E-01 2.227340540416E-01 3.901809336419E-01 2.842793996120E+03
 2.405772619869E-01 3.675758015146E-01 -9.962667712820E-02 -2.653312547171E-01 9.497495439326E-01 -5.030751796229E-03 4.017668844792E-01 8.997440767616E-01 -1.195559145819E-02 9.751262950316E-01 2.553894446111E+00 9.831523421868E-02 -1.640683642152E+00 2.712579873317E+00 2.475244460689E-01 -7.400756540216E-02 -4.831877238730E-01 -1.002255675521E-01 -8.518914291869E-02 -7.515957484704E-01 -1.363274884644E-01 2.092469173474E+00 -1.086168127007E+00 -7.051276100329E-01 2.083168107288E-02 -2.979000941481E+00 2.372187059752E-01 -1.382669828137E+00 -3.245392824529E+00 -7.095844340048E-01 4.353503706089E+02 -7.296724009879E+02 6.845875653876E+00 -2.550263304473E+01 -1.541069652613E+03 2.830506774139E+00 8.921047711002E-02 5.003629608364E-01 -1.137666243415E-01 5.868912571375E-01 3.718047076059E-01 3.651322110179E-03 2.971315220230E+01 2.892129285156E+03
 1.294184200158E-01 8.271892187245E-02 1.309684406369E-01 1.019397470634E-01 -2.207784434126E-01 -7.636987526929E-01 -4.162658624428E-01 -3.101975492068E-01 5.876478464203E-01 -5.408738655128E-01 3.866995638423E-01 2.538103748188E-01 -7.579258579630E-02 4.668820259331E-01 -6.078239922633E-01 -6.144692025916E-02 8.883125603913E-03 2.755465887091E-01 -2.370831825923E-02 -4.388415248707E-01 -1.071932833347E+00 1.692705211309E-02 -9.452175452062E-01 -1.216015743058E+00 8.129027171385E-02 3.527237960810E-01 -6.313637180932E-01 4.678076489896E-01 -2.107315980116E+00 7.148972937007E-01 -1.466213998928E+01 6.689791226942E+00 -8.574531457956E+01 -5.995859046930E+00 3.279589245243E+00 -7.758237527358E+01 1.167038209397E-01 -2.987860269374E-01 3.999513144474E+00 -6.615776728898E-02 1.975496408743E-01 -1.198086792168E+01 3.264271603348E+01 -5.772062214651E+00 1.860900351530E+02
 -1.381218237447E-01 -4.782316205989E-02 1.579197861134E-02 2.077465753042E-02 -2.289009018998E-01 -1.435131232074E-02 1.122343045196E-01 -1.815665267086E-01 1.786428133599E-02 2.993334786821E-02 -3.182986285618E-01 -1.727056566547E-01 3.764600678874E-01 -5.130904343138E-01 -1.561767487343E-01 -1.954541820751E+01 3.442626090327E+01 -2.628659524769E-01 -1.912657111110E-01 4.268234251604E-01 1.314964368257E-01 -1.340725127807E-02 2.461523182301E-01 9.271965382316E-02 -6.614256672834E-02 2.140647058564E-01 -1.584510204418E-01 -3.086914743848E-01 1.088870344559E+00 2.681627216688E-01 -1.220879940813E+03 -4.258347273045E+02 -1.308354132134E+01 -7.550282103335E-03 1.265006569684E-01 2.153267298029E-01 -1.175709172913E+03 4.230383800015E+02 -9.426882459284E+00 -4.737516997477E+02 -6.884620898443E+00 -5.548925968542E+00 -1.969650253572E+01 -3.403310082108E+01 -6.326401569305E-01 2.755019242183E+03
 -3.858689116767E-01 -1.136093978663E-01 -1.868221616312E-02 -3.021757213210E-01 1.600347400670E+00 4.482287173961E-01 1.025076152290E+00 -8.760486530989E-02 -1.964622438068E-02 1.164323575889E+00 5.835712412968E-01 1.391306136705E-01 -9.830752579666E-01 1.156141750116E+00 3.083518097265E-01 -3.284998548435E+01 5.731912745506E+01 -4.960851947639E-01 -1.623399379302E-01 1.229126759976E+00 -3.902746823752E-01 2.633907613298E+00 -5.732664175190E-01 -9.263285019362E-01 -7.563074398028E-01 -2.800455176032E+00 -1.162039129221E-01 -3.144903171791E+00 1.098975211815E+00 -1.120377743599E+00 -4.293542932326E+02 -7.138981242235E+02 -5.753102854136E+00 3.832628109549E-01 4.930433781337E-01 -2.496154295447E-01 4.244406980621E+02 -7.119867179973E+02 3.025466558956E+00 3.414121873084E+00 -1.496683481298E+03 -3.418408688255E+00 3.442161366682E+01 5.900329182700E+01 9.185671765740E-01 2.508491140137E+00 2.805593243473E+03
 -3.422545516949E-01 -2.396279453328E-01 4.360321250181E+00 6.638929500882E-01 -1.575792225419E-01 -8.292270636663E+00 2.496126363156E-01 -2.421143264422E-01 -4.623820030889E-01 3.998767154252E-01 -1.472804579256E+00 3.202613913661E-02 7.215620455734E-01 -1.173769757705E+00 1.609592031920E-01 -4.522929749100E-01 2.375902670939E-01 8.538029784215E+00 -1.285583936263E-01 9.073998415580E-01 3.029261157157E-01 -7.559396520935E-01 1.273053223025E+00 1.493145390505E-01 -3.013941233961E-01 4.353400005710E-01 1.826682406955E+00 -2.707401992127E-01 3.694465465113E+00 -6.877563532587E-01 -1.354552742925E+01 -5.240205763219E+00 -8.258797348118E+01 -1.639328265801E-01 9.154192223423E-02 -1.069230616077E+01 -9.079244320341E+00 3.665866759198E+00 -8.028303166545E+01 -5.911345058563E+00 -3.653773473220E+00 -8.174871594823E+01 -4.005240748778E-01 -7.238525008104E-01 9.238636087476E+00 2.735456659274E+01 5.297261551875E+00 1.912660880830E+02
 5.171723787191E-02 1.014603302531E-01 -1.503259292418E-02 8.512467059987E-03 7.832948281177E-01 -1.359233577703E-01 2.791034846688E-01 4.688830558560E-01 -3.724768376949E-04 9.638894621795E-01 1.505834344570E+00 1.816090391563E-01 -9.919999335477E-01 1.506591819095E+00 1.590248641754E-01 -9.346885484145E-02 -3.501389643020E-01 -7.610846519422E-02 -8.405267368606E-02 -3.087915441028E-02 -7.891495112353E-02 1.312203623797E+00 -8.429815084443E-01 -6.516405297206E-01 -2.539076503007E-01 -1.914899177047E+00 5.468439477822E-01 -1.488263705003E+00 -1.553642766717E+00 -7.113923115346E-01 -5.153436059361E-02 2.885190213536E-01 -2.431383459401E-01 -1.504884679024E+03 -5.288438076543E+02 -2.229699481477E+01 2.008572676285E-01 5.937565858630E-01 -1.405140214507E-01 -1.277980365740E+03 4.347531849026E+02 -1.878069305840E+01 4.894984826480E+01 -1.492742941022E+00 1.070667464359E+00 3.943164653890E+01 -6.923948646514E-01 7.356594512900E-01 3.072824955707E+03
 9.521696509942E-01 7.619259283708E-01 -7.648355767306E-02 -1.249621820612E+00 -1.043245193346E+00 -1.169404628251E-01 -1.006668533878E+00 2.115930737718E+00 -1.654261903670E-01 -4.566536873288E-01 4.126972988708E+00 -5.616239397504E-02 -1.631386084639E+00 3.360028598451E+00 2.151792679167E-01 -1.398691926295E-01 4.486199331335E-01 -1.109978117430E-02 2.723866462909E-01 -4.010162891572E+00 6.316801442103E-01 -2.529348154853E-01 -1.652388659494E+00 1.092175689511E+00 1.293505672922E+00 -9.714274577607E-01 3.001837479401E-01 2.788213039710E+00 -1.034249727802E+01 -3.807712508124E-01 1.405998672484E-01 -1.943428113222E-01 -2.111687017835E-02 -5.385394301950E+02 -8.658704076871E+02 -6.994426835969E+00 -2.821627559725E-01 -3.104270866551E-01 2.127291148834E-01 4.188770196640E+02 -7.260974530935E+02 7.119069300993E+00 -8.607391226840E+01 2.072760190137E+00 -1.893979475970E+00 7.227218583334E+01 5.883888833728E-01 1.575815155977E+00 9.153185435511E+01 2.538883427932E+03
 4.970857001693E-01 4.187954854706E-01 8.817917993378E-01 -4.193266996611E-01 -2.681518079062E-01 4.333843249291E+00 -5.856905996716E-01 7.918599423016E-01 1.963848269302E+00 -1.503611591350E-01 2.534488391221E+00 -1.113726687321E+00 -1.561656965569E+00 2.816636002833E+00 -3.615262502723E+00 -1.757465850453E-01 -3.608428209230E-02 2.141663269870E+00 1.641166017205E-01 -2.010592465087E+00 -2.710341774461E+00 2.525331506302E-01 -1.511101126507E+00 -5.195101774406E+00 1.922836479188E-01 -7.527472926504E-01 -5.688338663989E+00 1.611913290022E+00 -6.470341877308E+00 7.324821975527E+00 4.388814749901E-01 1.458547461142E-02 -1.003882054140E+01 -2.190037305038E+01 -6.696852630566E+00 -6.979810082236E+01 -4.878227524024E-02 -4.929428937005E-02 3.842183649139E+00 -1.917344098895E+01 7.055795947483E+00 -8.160371256436E+01 3.873515058206E-01 -2.427803668817E-01 1.214572470117E+01 6.665907937484E-01 4.827841462644E-01 9.363754037436E+00 4.552588069916E+01 -3.507509869308E+00 1.544158376230E+02
 8.232264473725E-01 4.501886365554E-01 -2.186035561280E-01 -1.231298247204E+03 4.438518240852E+02 -7.189195967836E+00 -1.247759573069E+00 1.591614323647E+00 -4.695007267631E-02 -3.992307746251E-01 3.012649227276E+00 3.307367749417E-01 -9.933160803905E-01 1.821922566162E+00 -1.597568304109E-01 3.976948376956E+01 -2.876171869009E-02 1.255638132691E-01 4.690698971210E-01 -2.998163641596E+00 3.832334135060E-01 -2.135782726297E+01 3.367609271912E+01 1.129758267941E+00 8.921051679141E-01 1.270799866996E-01 7.490639311437E-01 1.678695000529E+00 -7.031629696184E+00 4.538964519196E-01 1.603721663429E-01 -3.233369526163E-01 -5.947228294592E-02 -6.365827282103E-02 -6.500284399831E-02 -2.451261085289E-01 -6.248585534882E-01 -4.733288075712E-01 -7.626446420510E-02 -1.137414350076E+03 -3.909416159270E+02 -1.677208604365E+01 -1.559432649283E-01 2.212025270175E-01 -1.996191389468E-01 3.692859308192E+01 1.026153750630E+00 8.333080263134E-01 -1.726118392451E+01 -3.300242433014E+01 -8.857219357379E-01 2.738851674318E+03
 1.407458102568E+00 1.082100642896E+00 -1.095437369639E-01 4.519405598908E+02 -7.354515061677E+02 -3.776001344350E+00 -1.152904807132E+00 4.674161156383E+00 -3.705849319329E-01 1.589151750888E+00 1.029492327121E+01 3.592849874451E-01 -5.739989931954E+00 9.818396773551E+00 1.314690171688E+00 6.647884766405E+01 -1.027503240931E+00 2.502175312380E-01 6.998640876983E-01 -6.635836840314E+00 4.779611390858E-01 -3.099143373415E+01 5.435399156060E+01 -9.926045300227E-01 1.111209393917E+00 -6.345303796279E+00 8.724845006440E-01 1.714888315990E+00 -2.424314038767E+01 -5.291265984757E+00 -8.723583150043E-02 5.463241670535E-01 -2.600380894107E-01 5.918562971002E-01 6.201262153848E-01 -1.336621575325E-01 1.228334730885E-01 1.266197853377E+00 4.817219780943E-02 -3.883963748489E+02 -6.665710001509E+02 -1.002475538995E+01 -2.375096114774E-01 -8.562067314681E-01 7.731207979125E-02 -6.450710751384E+01 -9.952414671152E-01 -7.537238114456E-01 3.054963200601E+01 5.718090710074E+01 -7.103875964213E-02 -1.015460454477E+01 2.809736538236E+03
 6.570311998135E-01 1.981716781290E-02 4.993511156587E+00 -5.555012988589E+00 -4.007551566369E+00 -8.170682211799E+01 -3.880528100573E-01 9.658799516061E-01 8.451170087985E-01 3.685527242834E-01 2.079578559368E+00 3.953312958382E+00 -1.549783771170E+00 2.661660332025E+00 -2.505334845835E+00 -6.680037827777E-02 3.451139788157E-01 9.664827344327E+00 1.486478401190E-01 -1.423618006630E+00 -1.887242191515E+00 -8.260935270337E-01 5.335422001878E-01 5.225087744131E+00 2.793407457079E-01 -1.157548116418E+00 -1.267953878603E+00 1.531333655129E+00 -4.048055271633E+00 4.226364551486E+00 -3.762655484389E-01 -2.369300106428E-01 4.022931296996E+00 3.433998576204E-01 -2.471994008801E-02 5.254891224739E+00 6.864948328411E-01 4.571012288371E-01 -9.343856349382E+00 -1.857459868676E+01 -9.468208739111E+00 -8.290506643464E+01 -2.851461537533E-01 3.977618890465E-01 3.265178587017E-01 7.153360036440E-01 -5.694222181434E-01 8.174077864264E+00 -7.728502344419E-01 -1.053871637584E+00 1.112818631755E+01 2.839746381963E+01 3.851718998583E+01 1.885623886867E+02