#BIOSYM hessian 1
@Type: Hessian Update
@Units
 distance: 	A
 energy: 	Kcal/Mol
#header
@natom 67

#label
C1      C2      C3      C4      C5      C6      C7      C8      C9      C10     C11     C12     C13     C14     C15     C16     C17     C18     C19     C20     C21     C22     C23     H24     C25     C26     C27     C28     C29     C30     C31     C32     C33     C34     C35     C36     C37     C38     C39     C40     C41     C42     C43     C44     C45     C46     C47     C48     C49     H50     H51     H52     H53     H54     H55     H56     H57     H58     H59     H60     H61     H62     H63     H64     H65     H66     O67

#element
C  C  C  C  C  C  C  C  C  C  C  C  C  C  C  C  C  C  C  C  C  C  C  H  C  C  C  C  C  C  C  C  C  C  C  C  C  C  C  C  C  C  C  C  C  C  C  C  C  H  H  H  H  H  H  H  H  H  H  H  H  H  H  H  H  H  O 

#matrix
201
 2.784296741804E+03
 -2.368412312990E+01 2.817920574500E+03
 -1.238038621386E+01 -1.968569193978E+01 1.933853140944E+02
 3.940484557544E+01 6.717296828284E+01 -1.610351408639E+00 2.788916411111E+03
 -3.638314900722E-01 -9.059997170114E-01 1.149430242150E-02 -2.124231745223E+01 2.770515972795E+03
 -7.221802017149E-01 -6.029809884549E-01 8.486111260287E+00 -3.817314448318E+00 -4.200920787297E+01 1.918223103612E+02
 -1.960115934424E+01 3.456307614054E+01 -3.915505777116E-01 9.014159909626E-03 -8.427152663671E-03 -9.224499363822E-03 2.812785753138E+03
 -3.378792554855E+01 5.958917972754E+01 -6.902725621343E-01 2.810146582492E-02 -3.248668602055E-02 9.504480364793E-02 -3.255951053535E+01 2.818531277250E+03
 2.977660113832E-01 -6.979222744517E-01 9.522767322871E+00 3.960155359567E-02 2.907905104263E-02 -8.254679868606E-02 -1.797365978887E+00 -3.010145722287E+01 1.957547859771E+02
 3.893556595516E+01 -6.838843540094E+01 1.055631649992E+00 -1.956390306442E+01 3.526308461077E+01 -1.837025231113E-01 4.194231285908E+01 7.198494332364E+01 -1.016307561337E+00 2.788529573999E+03
 -3.556170432302E-01 6.218214243855E-01 1.717111043510E-01 -3.290043422252E+01 5.920471658734E+01 -4.178072162376E-01 -4.752510162836E-01 -7.976534000742E-01 1.408591848078E-01 -1.895517808678E+01 2.833294189912E+03
 4.421806937959E-02 3.167976469371E-01 9.439523956447E+00 5.304066226123E-01 -8.510121354824E-01 9.330509592727E+00 -1.321967507110E-01 7.518795355916E-04 9.022566644429E+00 -5.926723875957E+00 -3.346071222899E+01 1.953727146415E+02
 -4.467394645092E-02 8.126922632622E-02 -7.429655602186E-03 -6.242216290629E-02 6.146786467164E-02 1.137443780921E-01 4.195641895756E+01 -7.336485251874E+01 1.032154470054E+00 -2.151268333659E+01 3.835498310486E+01 -4.105389172328E-01 2.636395052907E+03
 -8.035772472642E-03 -1.144143621024E-02 1.364862233706E-01 -5.423264921632E-03 -5.653155620715E-02 8.819498600383E-02 3.296178312575E-01 -5.751278263453E-01 2.241573746476E-02 -3.528920466120E+01 6.290856317044E+01 -5.906216124665E-01 -2.218819908433E+02 2.899884567047E+03
 2.338438888161E-02 6.266442578249E-02 -3.725140184456E-03 -1.187241663947E-01 -2.634094050243E-02 2.241967037582E-01 1.316441975990E-01 2.003688404070E-01 1.055864299306E+01 4.730974122776E-01 -8.207885015962E-01 1.061303886836E+01 -1.229452637864E+00 -3.709858868179E+01 1.557596598918E+02
 -1.230921622315E+03 4.467647548759E+02 4.043437395823E+00 -4.632173475864E+02 -1.150137541825E+01 3.271252026419E+00 -4.478702308551E-02 -8.065027947186E-02 2.578941792351E-02 -1.835117733410E-01 -2.009516177835E-01 1.250355436095E-02 -6.510079433144E-03 -6.539355018943E-04 2.899386009922E-02 2.821468637266E+03
 4.414473772077E+02 -7.407487376290E+02 5.014383874295E+00 -1.077622108584E+01 -1.432646393133E+03 2.086961817604E+01 5.438380762228E-02 -6.543980769414E-02 8.664890033320E-02 -2.364954475312E-01 1.652805689514E-01 -2.242852920038E-01 -1.069237191201E-01 3.929826765752E-02 -1.000429214767E-01 1.874590104974E+00 2.780264671027E+03
 3.412933868115E+00 3.997540906466E+00 -8.360546473057E+01 1.463765468891E+00 2.067914251681E+01 -8.070041217163E+01 4.414102560520E-01 4.749008341927E-02 4.351316259103E+00 -1.888658032349E-01 -1.459922997280E-01 -9.197012913235E+00 3.720449284713E-02 -7.333913876386E-03 9.522881345382E-01 -2.645151034243E+01 -3.836759409888E+01 1.951610410127E+02
 -1.193741349169E+03 -4.123208885513E+02 7.918776962308E+00 6.474764703228E-02 -2.042788478171E-01 1.699159210695E-02 -1.262803830696E+03 4.481406161295E+02 -3.288674667842E+00 -4.857755497670E+02 -1.333741796586E+01 9.549730622553E-01 -1.006622109888E-01 -1.756559720493E-01 1.049792983992E-02 -1.944666877094E+01 -3.275712368994E+01 1.536995872909E-01 2.821655279388E+03
 -4.118575339412E+02 -7.009574058357E+02 7.368740363235E+00 -1.156907790114E-01 -1.511524082749E-01 -4.955520974317E-01 4.500381596139E+02 -7.478526627368E+02 7.247308673745E+00 -1.553473169901E+01 -1.512864588091E+03 1.734945644378E+01 -1.521948648539E-01 7.105722871651E-02 -3.374133851515E-01 3.476624755871E+01 5.855083509905E+01 -3.590664073487E-01 -2.525906247257E+01 2.843559830267E+03
 8.316144048639E+00 6.976918363491E+00 -8.183971672451E+01 4.857581657768E-02 4.048383500612E-02 -8.985315914054E+00 -3.340764664771E+00 7.171702495949E+00 -8.566143772556E+01 9.111179464818E-01 1.725685909691E+01 -8.533277764233E+01 -2.570749213775E-02 -6.040749855532E-02 -9.889106355185E+00 -2.053191139059E-01 -6.004603586759E-02 9.192093099210E+00 -5.359072835481E+00 -3.131374986410E+01 1.965310605389E+02
 -1.606795631220E-01 1.049004672452E-01 -1.576753075282E-01 -1.222215021069E+03 -4.187571393683E+02 9.122377984219E+00 4.776659797061E-02 1.647193566972E-02 3.916374008516E-04 -1.224398694709E+03 4.414707389993E+02 -2.786539222942E+00 6.888664123444E-03 2.277609370404E-02 1.266551884536E-01 3.744772547446E+01 -5.058107721036E-01 2.829741167363E-01 4.149345719574E+01 -5.276749495716E-01 5.285518873044E-02 2.807941138326E+03
 -3.464049923016E-02 1.664882248823E-01 5.478092883311E-02 -4.215529631775E+02 -7.041955748182E+02 1.097932233367E+01 -1.780542545694E-02 3.299905013992E-02 9.011712148049E-02 4.397114185493E+02 -7.373238900203E+02 8.019167193272E+00 -3.912697659486E-02 -4.483189379977E-02 -1.415400881166E-02 -6.674597318571E+01 5.018538730184E-01 -1.390118813344E-01 7.014895066979E+01 -7.393028951026E-01 -2.448877878505E-01 -9.267122043059E-01 2.807710073492E+03
 1.756059472389E-01 -2.556968837354E-01 -8.967273604512E+00 9.768418553720E+00 1.145133481066E+01 -8.244726469912E+01 -1.615444764889E-02 5.209768821907E-02 4.830334269684E+00 -3.296500457380E+00 7.807354200040E+00 -8.343782208015E+01 8.506564523439E-02 1.063783479537E-01 4.929448916472E+00 8.791769581405E-01 8.168233062626E-02 8.639882497236E+00 -8.657621482990E-01 2.713374804699E-01 9.222462336834E+00 -7.615507925522E+00 -3.996227924174E+01 1.952204675162E+02
 -6.351279023549E-02 6.233008873777E-02 8.828272879027E-02 1.042849748942E-02 4.281221934185E-02 -1.212430876328E-01 -1.196553391929E+03 -4.070773044343E+02 5.548420360393E+00 4.394717155180E-02 -1.666653513793E-01 3.866742187411E-03 -5.218597512484E+02 6.873239350307E+00 -7.646996023826E-02 -2.539750938564E-03 -5.464701012051E-02 -1.837539213931E-01 -1.975619892638E+01 -3.376964910198E+01 3.822834566463E-01 -6.241864375985E-02 3.265153148520E-02 -9.379238578839E-02 2.774455555073E+03
 3.094618320117E-02 -1.115226967318E-01 9.102393601391E-02 -3.251250645525E-02 9.377071832374E-04 -5.416315037369E-02 -4.158894493866E+02 -7.035567978094E+02 7.975030103040E+00 -1.042968157498E-01 -8.665866535592E-03 -1.935823166109E-01 8.510224751103E+00 -1.635750894392E+03 2.173043492509E+01 6.625769855004E-02 9.256859487661E-02 1.715020531745E-01 3.485356657446E+01 5.958750933610E+01 -5.332589650627E-01 4.260446520127E-02 -1.980425531086E-02 1.722565398111E-02 -2.960120243329E+01 2.957193278101E+03
 -3.961928952301E-02 -6.944289686698E-02 4.704518863823E+00 2.231173122127E-01 -1.421125523128E-02 -5.080303924154E-01 5.410676780977E+00 7.656231853431E+00 -8.291613844621E+01 4.708577360130E-02 -2.196506394505E-01 -9.960437518733E+00 1.248053567602E-02 2.179525510821E+01 -7.938312489121E+01 4.629184254120E-02 3.182883562337E-01 -2.792689091260E+00 -2.436902325683E-01 -2.120226396668E-01 9.905265058699E+00 -2.596548605244E-01 2.960746762259E-01 2.228776716106E-01 1.221290145637E+00 -3.839151074013E+01 1.862966035214E+02
 8.174720129066E-02 -1.082687782174E-01 -1.005235033329E-01 1.172455591231E-01 -2.929968939759E-02 -1.258623574092E-01 -6.942746161963E-02 -4.946482381815E-03 6.044637284283E-02 -1.196131984923E+03 -4.163413450972E+02 8.085809608267E+00 -1.335003912945E+03 4.951997581551E+02 -3.952592551987E+00 -4.878360411649E-02 9.603810244751E-02 1.166179894096E-01 3.889709005696E+01 -3.734031684340E-01 -8.543102710502E-02 -1.939321793739E+01 -3.261155368536E+01 4.516247623725E-01 4.944940158225E+01 3.235433139569E-01 -1.746303474639E-02 2.881668983158E+03
 -3.108998517153E-02 1.042902991308E-01 -1.333168477977E-01 -3.835620032500E-02 1.558278770064E-01 5.041645015700E-03 -2.392265178711E-02 8.995283288510E-02 -4.271851025093E-02 -4.079290738325E+02 -7.033249098761E+02 9.080014073324E+00 4.932928300325E+02 -8.228743506016E+02 9.014641077346E+00 -2.841580114115E-02 -1.839141042223E-01 -2.496969419876E-02 -6.869548282411E+01 6.952298425709E-01 2.521134495007E-01 3.451485004004E+01 5.810963755506E+01 -7.194931769550E-01 8.137478018790E+01 5.450686001477E-01 1.567620389356E-02 -9.549930405970E+01 2.846214660932E+03
 -1.744467927264E-02 1.672745381702E-01 4.214050615653E+00 -1.304000368504E-01 4.873890024370E-02 4.732716563259E+00 4.389664598729E-02 -1.271331819844E-01 -1.029963885886E+01 8.321761913211E+00 9.189143654368E+00 -8.325646293820E+01 -3.734324754890E+00 9.050440376404E+00 -7.736340086875E+01 -4.762854548690E-03 -2.107849016801E-01 1.732070622553E+00 6.690189245073E-01 7.687584534088E-02 1.066993338858E+01 -3.356813750984E-01 -7.499782819227E-01 8.185520124965E+00 -1.245159218130E+00 5.341856244389E-02 8.655677685653E+00 -4.721266498192E+00 -3.597977705376E+01 1.847250069950E+02
 -9.950316592838E-03 -7.442305742200E-02 -2.896557592293E-01 -3.458735160940E-01 4.440244411317E-01 3.000693008808E-01 7.684709280380E-02 1.686396103271E-01 -2.471008286371E-01 -7.316442931577E-02 1.529097888988E-01 7.275539781663E-04 1.310211796519E-01 2.266349009372E-01 5.104076452702E-01 1.527822599539E-01 9.504464555504E-02 1.202488369881E+00 -6.722081728258E-02 -6.904295401316E-02 1.702071901258E-01 1.530905403352E-02 3.537083328123E-02 -4.367743146896E-01 1.654944188951E-01 -2.213681423850E-01 -1.672894928530E+00 -1.240411522342E-01 5.182921079917E-02 1.020256317183E+00 2.781421010465E+03
 9.493198018215E-01 -1.231028585570E+00 -2.232622768647E-01 1.159660179885E+00 -2.426732304601E+00 1.510032756025E-01 -1.807223082463E-01 -2.247332210589E-01 -1.696232473048E-01 -1.203309514699E-01 5.043526304443E-01 -6.524945190861E-02 4.423268653263E-01 -2.305734084365E-01 1.686024064757E-01 -1.884281382608E-01 2.112746390694E+00 6.881924749917E-01 -3.326414141043E-01 -5.341699229202E-01 1.172765357165E-01 4.163175453720E-01 4.330532965598E-01 -1.796652522151E-01 5.694579830529E-01 -8.963375622427E-03 -9.320295175455E-01 -4.472144005951E-01 7.025550622988E-01 6.768312686330E-01 -5.516286505958E+00 2.797332164705E+03
 -2.364378222565E-01 5.640470699986E-01 -7.252873337912E-01 1.820899952708E-01 6.525212341047E-01 6.429774000952E-01 2.477836133512E-01 -1.073102054227E-01 -5.766334422627E-01 -7.096214549764E-02 -1.049187493131E-02 4.059990100414E-02 -4.908559168820E-02 -1.231794046288E-01 2.066660338336E+00 -8.481707367991E-02 -1.522234085739E+00 9.559622877362E+00 8.478440266835E-02 -3.132238998189E-02 7.275034605958E-01 2.541262210314E-01 -5.872769775201E-01 -7.187096138663E-01 -2.944158171347E-01 1.791335016641E-01 -6.454554911854E+00 2.690478017445E-01 -1.820036362278E-01 4.094629639172E+00 -4.581511974517E+01 -3.741115179065E+01 2.134971861457E+02
 -5.376649144627E-01 5.180760294118E-01 1.432118035717E-01 -7.402138016072E-01 1.466258446002E+00 1.504026223815E-01 1.131497498924E-01 1.282232999474E-01 -2.289692880533E-02 6.185492039904E-02 -2.234590034400E-01 1.246622938028E-02 -1.545806681602E-01 2.021328792095E-01 1.308127540934E-01 1.944923753808E-01 -1.026429988710E+00 3.003575994464E-01 1.826952412851E-01 2.542474766978E-01 5.046163515928E-02 -2.393161748415E-01 -2.479792600272E-01 2.927490400693E-02 -3.250234849820E-01 6.503972857651E-02 -1.243486739864E-01 1.549996519862E-01 -3.898721592790E-01 2.971193867933E-03 4.129327769914E+01 8.141226043833E+01 -1.054038957052E+01 2.785458886098E+03
 -5.012411205240E-01 3.775351510958E-01 1.583681688684E-01 -9.500605938826E-01 1.684997324803E+00 3.049618224701E-01 1.563650139439E-01 1.482086487059E-01 -1.551328109089E-01 -9.770782483741E-02 1.103974627737E-01 3.022435648679E-03 -5.594056027235E-02 3.905547182251E-01 3.167076050266E-01 4.835959385827E-01 -8.700948325536E-01 4.320570498796E-01 1.752905629136E-01 6.942990840096E-02 1.387922410957E-01 1.070884978998E-01 -2.863797399784E-01 -6.376657990521E-02 1.501859213979E-02 -1.330878851260E-01 -4.771542844272E-01 1.036836981102E-01 -2.357952472859E-01 3.316712526940E-02 -9.293488146622E+00 9.079263037921E+00 9.966991106397E-01 2.684721228927E+02 2.827300115006E+03
 9.249489345344E-02 5.552090547444E-01 -3.370563190785E-01 5.451710362064E-01 -3.489123728917E-01 7.184435766310E-01 2.195490916647E-01 2.193389154482E-01 -5.572357263383E-01 2.698211447955E-01 1.451174988960E-01 -2.647522838557E-02 3.829452209803E-01 1.620901844124E-01 1.730150147745E+00 -6.268719204959E-01 -1.026502794685E+00 4.036116368751E+00 -3.072465912115E-01 -5.412891162748E-01 6.911780117461E-01 8.112858334349E-02 -2.172129247190E-01 -3.682683684289E-01 -3.031640440009E-01 -1.653886913830E-01 -5.090715289162E+00 -3.003977295596E-01 -7.030418929357E-02 3.097833513843E+00 -2.342165173573E-01 -1.673993677325E-01 2.205551309713E+01 -3.463945461062E+01 -1.859815801039E+02 1.752875873953E+02
 -2.012448731971E+01 -3.442341298399E+01 5.585019266244E-01 3.845816454357E+01 -6.635485335694E-01 -5.227324238574E-01 9.329740855770E-03 -4.907753383014E-02 -3.238198377584E-02 -5.231054225631E-02 7.932090731423E-03 -3.192323313899E-02 -2.372811167674E-02 -4.487868269256E-02 -2.879073880333E-02 -1.246705025760E+03 -4.333302249675E+02 2.188772747480E+01 -4.547322342662E-02 -1.003632608859E-02 -1.176186649668E-01 1.229527754951E-01 7.060665828351E-03 8.913461282774E-03 5.986074774134E-02 -9.877094211200E-03 6.116973269526E-02 5.371310086314E-02 7.483773130040E-02 -6.077131403567E-02 -1.830292777948E+01 3.263211258060E+01 -3.531585083894E-01 8.959871147070E-01 1.390171546123E+00 -2.556382154325E-01 2.776718228726E+03
 3.590832594139E+01 6.080369635356E+01 -1.561196194047E+00 -6.771962847736E+01 7.337401502539E-01 9.529305066623E-01 -1.960548971987E-03 5.767541028316E-02 -8.462250669481E-02 2.236794771766E-02 7.255091725904E-02 1.985070026103E-02 5.438983619431E-02 2.577952447235E-02 1.257545197107E-01 -4.386050241759E+02 -7.233350699385E+02 1.375080620801E+01 -5.560621090135E-02 -8.930836432847E-02 7.113828440023E-02 -6.266971860463E-03 7.741008324002E-02 -8.262017818446E-02 1.330523477021E-01 -7.033354272761E-02 -4.771542385355E-01 -5.279580469195E-02 9.251176388109E-02 3.258204736069E-01 -3.482770692989E+01 5.669348184895E+01 3.184583872789E+00 -4.798782959408E-01 -1.916404294434E+00 1.708084001999E+00 1.677840577226E+01 2.802218433237E+03
 -2.588386516420E-01 -1.788193934306E-02 1.012097235906E+01 2.191319836948E+00 -6.342183664517E-02 8.918214020837E+00 -7.058435040247E-02 -4.429379609065E-02 2.138561224378E-01 1.371077633628E-01 2.636335700154E-01 2.771191445204E-02 -1.405745812237E-01 -8.271681089784E-02 -5.941812752673E-01 1.972660317794E+01 1.273061941998E+01 -8.495595258735E+01 1.473671272390E-01 -2.040235947223E-01 4.328739384661E+00 -4.213586117631E-01 1.640234973791E-01 4.695348070581E+00 1.448565432721E-01 1.394484596976E-01 1.901773487139E+00 1.463579690154E-01 5.390234726752E-03 -1.244247128708E+00 -1.940462130452E-01 -2.975889526265E+00 5.388739322891E+00 2.083647720788E-01 1.268831949963E-02 -2.764477725432E+00 -3.339399109436E+01 -2.209413167427E+01 1.927270645450E+02
 -4.027187298836E-01 4.051884963539E-01 8.669410411307E-02 -1.938718112511E+01 -2.995425068773E+01 9.337289508252E-01 1.303970151915E-01 8.976644213219E-02 -3.903944976540E-02 2.557766244610E-02 -1.707772459691E-01 1.812129657665E-02 -1.207263063573E-01 1.868339109252E-01 1.623054255169E-01 1.675032282601E-01 -1.007595559716E+00 2.214923076435E-01 1.074800031391E-01 1.885218589039E-01 9.573627183968E-02 -6.259331668846E-02 -1.502329808993E-01 1.977688214907E-02 -2.214183986344E-01 5.711158223948E-02 -1.982973044425E-01 1.601180195829E-01 -2.663496367957E-01 3.281882996926E-03 3.468172468398E+01 -6.228201136691E+01 6.616845802987E+00 -2.842934994834E+01 3.358034500151E+01 -7.078773503015E-02 4.041093637609E+01 6.585746248540E+01 -4.242417275990E+00 2.758840803693E+03
 3.068165995874E-01 -2.161203058850E-01 2.177555422106E-01 3.443255842337E+01 5.470307396486E+01 -8.916267028782E-01 -5.821485769399E-02 -6.542207063888E-02 8.102294410882E-02 2.893421086655E-02 -1.945094959878E-02 -1.042926383295E-02 1.223257507771E-02 -1.753582094152E-01 -2.463701497699E-01 -5.869556156212E-01 1.601305435554E-01 1.222122457180E-01 -1.290974936173E-01 -4.962166952771E-02 -1.090639513848E-01 3.350949746657E-02 2.338032321921E-01 3.076622811636E-02 1.293488799158E-01 2.261031057260E-02 4.685276799081E-01 -9.089930586991E-03 2.190080636720E-01 -1.883980083453E-01 1.291555443575E+00 -3.934213044172E+00 -1.936800757858E+00 -3.862194094576E+01 7.835888692495E+01 -6.545747048771E+00 -1.084240949934E+00 -2.025763121010E-01 -6.463273463473E-01 -2.854812255186E+01 2.759911714809E+03
 -5.935023464750E-01 4.051070364874E-01 -1.761967507147E-01 -5.851450753102E-01 1.422357455993E-01 8.579610344432E+00 -2.385344540351E-02 3.755132603299E-01 -3.845105693126E-01 2.325622616678E-01 4.424920377581E-01 -4.539394901083E-02 4.015546016862E-01 3.521655845861E-01 1.140244928089E+00 6.431204928411E-01 -9.536880604831E-01 -6.259402947898E+00 -1.847232029915E-03 -6.447150334124E-01 4.649650423313E-01 -5.662293298031E-01 -5.029592757532E-01 4.073120399037E+00 -2.960050255673E-01 -3.702359002214E-01 -3.251162097978E+00 -5.308122475448E-01 -3.488867567778E-01 1.973211514028E+00 4.308502633176E-01 4.124202808424E+00 1.588937666174E+01 2.657007098162E+00 -3.575810228568E+00 1.769927394872E+01 -1.446176937518E+00 -1.745819261347E+00 6.910792496744E+00 3.355461556018E+01 -1.033808006838E+02 1.921174450283E+02
 5.584535116945E-01 -4.994927858023E-01 4.726318542409E-01 8.182987959514E-01 -2.611842232921E+00 -1.004163644340E+00 -2.034346471461E-01 -6.775058594702E-01 7.076591696642E-01 2.142677192820E-01 -9.569425410968E-01 6.076244569874E-02 -3.850164896452E-01 -9.947771717831E-01 -1.092205492674E+00 -5.507916772303E-01 1.354617522758E+00 -3.444710202066E+00 -6.810237976761E-02 5.056889282413E-01 -5.978996366390E-01 -2.436337628079E-01 1.284385161903E-01 1.133926489764E+00 -9.335410340847E-01 1.018881566910E+00 3.991185685169E+00 3.365041580311E-01 -1.881096666311E-01 -2.415151270074E+00 -1.197737274786E+03 4.248604313959E+02 -2.699393264211E+00 -5.027010316732E+02 2.646079400251E+01 7.671210173062E+00 -3.117226849446E+00 6.322938731873E+00 2.654734087113E+00 1.710780847982E+01 -8.485062189841E+00 -4.298323393041E+00 2.755122137074E+03
 1.273376596750E+00 -4.665735069741E-01 7.697298203121E-02 2.687442010926E+00 -3.614588255299E+00 2.018549972044E-01 -1.694397492206E-01 5.921934486998E-02 2.199465349877E-03 5.296783877907E-01 7.214346544061E-02 -1.257841856108E-02 5.884408189132E-01 -3.733939389751E-01 3.818597750984E-02 -1.824613148072E+00 1.405520353237E+00 2.986707248079E-01 -8.333126370890E-01 -8.125010134814E-01 2.858750329189E-02 -4.693238963861E-01 9.199024515778E-01 2.104269403344E-02 -1.792297876382E-02 8.819789573208E-02 -2.277626358423E-01 -7.214562941300E-01 5.791323379014E-01 2.564637801299E-01 4.528171180217E+02 -7.746112756055E+02 1.734219539664E+01 -1.305438065455E+01 -1.512221962387E+03 1.058692165604E+02 -1.524666455688E+00 2.372204160425E+00 4.011270225717E-01 1.425760041892E+01 -9.287751107723E+00 3.504419742551E-01 -4.835095376989E+01 2.836373475814E+03
 -1.469739857361E-01 -2.970790527168E-02 3.639462543497E-03 -1.413473209134E+00 5.710063453553E-01 -2.238821781296E-01 -5.286273061447E-02 4.101190223409E-03 1.858553143788E-01 -3.671015468469E-01 -1.045927512567E-01 1.480571610116E-01 -3.869707290929E-01 2.479838796573E-01 -3.174179427896E-01 5.041475970246E-01 6.082603659637E-01 -1.062109131721E+00 2.664614577103E-01 4.403107291531E-01 -2.460503456549E-01 1.146464978377E-01 3.882849523431E-02 -2.417383949470E-01 1.318985515338E-01 -1.453289800315E-01 1.323521262086E+00 3.976963922766E-01 -1.983024072145E-01 -1.040068163293E+00 -2.144536130466E+00 1.685484220936E+01 -9.788528286705E+01 9.762235246358E+00 1.105410970123E+02 -9.238541799506E+01 1.663700309367E+00 -1.739072332639E+00 4.960946433890E+00 -7.008092048530E+00 1.325387675068E+00 -1.168103791717E+01 -7.735987684595E+01 -2.251486207023E+02 2.931789274960E+02
 -2.276511228795E-01 -9.874088893378E-02 5.198336850563E-02 -6.711194051656E-01 3.094446638388E-01 -1.584085328881E-01 -4.421458509935E-02 4.021055738431E-03 -7.954321768008E-03 -4.403753633822E-02 8.583336212543E-02 -2.271565683145E-02 2.973847421212E-02 1.347043560130E-01 -9.592078210712E-02 -1.917272883619E+01 3.505263472172E+01 -8.695186794866E-01 1.803713784617E-01 4.139421198871E-02 1.364019165178E-03 -4.335519180270E-02 -1.399454240853E-01 1.469224793804E-01 -1.461712535293E-02 1.013155787711E-02 4.678378023047E-01 -8.360034200080E-02 -1.278817664438E-01 -3.476562533955E-01 -1.227580024412E+03 -4.185905358758E+02 3.526974763276E+01 -1.196648762995E+00 -3.567267752105E+00 -1.701139596087E+00 -1.172612692343E+03 4.240792387332E+02 1.303267597709E+01 -4.689506940466E+02 -1.403827391180E+01 2.831024808568E+00 -9.970926971789E+00 -3.193078830022E+01 3.909019128789E+00 2.751374009257E+03
 -2.592621239737E-01 7.834472323854E-02 5.503231752333E-02 -7.603805766845E-01 1.172789732909E+00 -2.379922016269E-03 4.861211223604E-02 -4.982938463796E-02 7.950263903352E-02 -1.350530295639E-01 -9.582081688007E-02 5.458534232014E-02 -2.019564488070E-01 2.279352791359E-02 -3.045230606003E-02 -3.221740502040E+01 5.792371020585E+01 -2.338586842686E-01 2.345887935419E-01 3.216557251003E-01 3.565826208736E-02 -5.037583504167E-02 -2.711898817954E-01 3.218525506972E-02 -1.274447951119E-01 9.351945924550E-02 1.663110982151E-01 2.192064870470E-01 -2.394359981335E-01 -1.242619605402E-01 -4.254052342989E+02 -7.026503877440E+02 2.359069133305E+01 -1.812728223114E+00 -3.330003477415E+00 -2.281456082489E+00 4.265528065035E+02 -7.140678914930E+02 7.220743133403E+00 -8.191073646778E+00 -1.493639326493E+03 5.263674442323E+01 3.868443964575E+01 6.521382893548E+01 -5.942366072098E-01 2.999100748403E+00 2.798620773691E+03
 9.020027860966E-01 -3.394637398270E-01 5.878478277073E+00 -1.858657590520E-01 -7.669297245541E-01 -9.104684241189E+00 1.398983159037E-01 -2.190654823166E-01 4.503145786692E-01 2.049105803601E-01 -3.255453747767E-01 -1.216808727620E-01 -2.653295999726E-02 7.552582137975E-02 -1.691365959726E+00 4.456960426377E-01 9.618897394789E-02 3.888047289284E+00 -2.805563936123E-01 1.694607475192E-01 -5.108369822166E-01 3.005227032013E-01 5.111705063109E-01 1.344509246936E+00 -1.780574793837E-01 5.468643112850E-01 6.449248745835E+00 6.744040989238E-03 6.827983737734E-02 -4.478073998696E+00 4.148139805634E+01 2.573415136365E+01 -9.819618624540E+01 5.107141564433E-02 4.819392569261E-01 -2.073317700182E+01 8.299062058717E+00 4.696397361295E+00 -7.667187059399E+01 -4.171749032226E-01 5.100573038245E+01 -8.941680067363E+01 1.037578856972E+01 -1.871675840502E+00 9.913769375317E+00 -5.140795224605E+01 -8.488690423339E+01 2.130000402293E+02
 6.569822971505E-01 -5.892114289928E-01 -3.199092570423E-01 1.163261604409E+00 -1.903629070545E+00 -2.287589665759E-01 -1.788845683924E-01 -8.965904698600E-02 1.427005195767E-02 -2.132261645682E-02 2.565975994530E-01 -1.833346236464E-02 2.159545058839E-01 -2.863644662575E-01 -1.399120389691E-01 -3.876199418197E-01 1.191538086041E+00 -8.385238057389E-03 -2.608254891490E-01 -3.360493118303E-01 -6.384983104313E-02 1.131671174062E-01 3.815299085654E-01 -1.989604540156E-01 4.126333359973E-01 -1.390879332519E-01 -2.156627239510E-01 -2.518439956557E-01 5.102459821705E-01 3.669287151560E-01 5.516307971688E+00 -1.223954562018E+01 2.251407754934E-01 -1.496685770293E+03 -5.219897179507E+02 3.210476496402E+01 -1.282196434179E+00 6.830116091166E-01 -1.595319718539E-01 -1.265887239450E+03 4.303569586628E+02 -3.687563191494E+01 2.741074281551E+01 -1.789339155801E+01 6.407914361515E+00 4.145969239758E+01 3.591768483716E+00 5.234599063845E-01 3.057219672602E+03
 5.032740699791E-02 -8.067870228795E-02 5.705353067816E-02 2.694350392120E-02 -1.742620015488E-01 2.714808811668E-01 1.862174154421E-02 -9.274605259804E-03 -8.635987171004E-02 1.097888884185E-02 1.144969046316E-01 -2.822853736616E-02 1.076829990115E-01 6.567121833526E-02 2.024544413888E-01 1.312399143088E-01 1.513883526583E-01 1.323813137228E-01 -6.828298897524E-02 -1.797950394008E-01 9.184065199367E-02 9.108508181140E-02 -5.073185399109E-02 1.065303357784E-01 -1.749081440465E-02 -6.261310064299E-03 -3.337274906376E-01 -1.053817292493E-01 7.977056663078E-03 9.174381727923E-02 6.828448090455E-01 -2.513851004457E+00 3.785629509419E+00 -5.394229194055E+02 -8.568236665134E+02 5.252947863484E+01 -4.012802097813E-01 -1.630619025165E-01 -2.333358460397E-01 4.199523520442E+02 -7.364488989357E+02 4.023626449176E+01 -8.754089326887E+01 3.077170563312E+00 -1.912402302935E+00 7.270978435369E+01 4.707800806274E-01 1.321613377400E+00 9.225547704932E+01 2.538487312040E+03
 -4.265110920447E-02 1.623747202617E-01 4.275125311526E-01 7.340755711899E-01 -4.957258166499E-02 3.965820088889E+00 -2.459914118913E-01 1.565798247104E-01 5.372300426931E-01 1.912607291307E-01 -1.702055758599E-02 2.736004837400E-02 -6.592868950445E-02 -4.368875493693E-03 -1.688151145703E+00 -2.257542190867E-01 -5.697849154300E-02 -3.977581532146E+00 -3.280031952609E-02 -6.355058959190E-02 -6.485256006533E-01 -5.174861421258E-01 4.824903514147E-01 4.279717164722E-01 2.037076056445E-01 -1.301097547592E-01 5.099577763021E+00 -9.472488787451E-02 1.143094292883E-01 -3.175350280093E+00 -1.306730820877E+00 -2.047879261506E+00 -2.093006475956E+01 3.011921257367E+01 4.884869568412E+01 -8.048158062793E+01 -2.100311423267E-01 -2.974486056163E-01 7.373789854206E+00 -3.716504924490E+01 3.845018209481E+01 -8.399084439636E+01 1.435799524325E+01 -2.165068885215E-01 1.260698423034E+01 -1.722637328505E+00 1.572557347044E+00 2.031579270073E+01 5.653589698983E+00 -1.462606119291E+02 1.671504688296E+02
 3.061421142331E-01 -2.875238839916E-01 2.493915122237E-01 -1.224173109971E+03 4.460432484778E+02 -7.561708402990E+00 2.537533733551E-02 -3.972268341152E-02 -1.080620519138E-01 8.310392219869E-02 1.646325435063E-01 -9.109492054424E-02 1.476207942422E-01 -5.386200712935E-02 1.125077853317E-01 4.023749958494E+01 1.899324767936E-02 7.493402611629E-01 -1.669658327650E-01 -2.689252863544E-01 5.943293466394E-03 -1.989021110742E+01 3.596961435560E+01 -6.242811751712E-01 1.367168681075E-01 1.440892003864E-02 -3.539328980152E-01 -1.327718368897E-01 2.561778515519E-01 2.017031878098E-01 4.692659711360E-01 -4.913109381603E+00 1.432431312439E-01 2.585288295721E+00 2.455791433611E+00 -2.743950193837E-01 -5.031587242321E-01 -2.963733278890E-01 -8.471271003447E-01 -1.137771498099E+03 -3.907561723854E+02 5.164469789774E+00 -2.045781443716E+00 -5.808861982317E+00 2.545383950153E+00 3.731672173209E+01 1.297603541375E+00 -1.024877901704E-01 -2.148824271436E+01 -3.270840128644E+01 3.931714080430E-01 2.730535394415E+03
 2.259068355840E-02 -1.656262002258E-01 -2.720589067848E-01 4.565304912314E+02 -7.470417463544E+02 1.074732238605E+01 -1.024667662988E-01 2.957085875315E-02 1.878994038497E-04 -4.396402533797E-02 1.490461472744E-01 1.019847301037E-01 9.519574000044E-02 -9.237711531870E-03 -8.328276039935E-03 6.701659313895E+01 -9.276490992872E-02 -6.234661833458E-02 9.172111717784E-03 -1.005489992118E-01 -1.835036341117E-02 -3.314798941782E+01 5.936989277680E+01 -1.142601653014E+00 1.473778988733E-01 -1.444599717117E-01 -1.304670095486E-01 -1.581727555911E-01 1.009715912861E-01 1.548653050878E-01 -4.793354596993E-02 -2.609959696022E+00 1.364962945876E+00 1.260972347219E+00 7.618988571187E-01 9.191527898112E-01 2.151375476285E-01 -4.614686593030E-02 7.646504385436E-01 -3.877917147459E+02 -6.644134087429E+02 1.400489349902E+01 -5.703898814700E-01 -1.111742723759E+00 6.352055372077E-02 -6.508012743481E+01 4.997718117974E-01 -1.014376585683E+00 3.056223573200E+01 5.723286648104E+01 -1.631531104758E+00 -9.392049253749E+00 2.819405896903E+03
 2.225976337933E-01 -2.201637661441E-01 4.636918577984E+00 -8.346548286467E+00 9.965984454603E+00 -8.301168530317E+01 -1.674223015030E-02 -1.258426768077E-01 7.166624739151E-02 -1.250226741425E-01 -2.515408481564E-01 4.683500729889E+00 -9.170515071166E-02 -9.753805989915E-02 -1.751732022774E-01 -1.684068383307E+00 8.800775378295E-01 8.524119982078E+00 -2.153715632775E-02 3.269632332124E-01 -8.058534543152E-02 1.073380951122E+00 -6.861611743373E-01 9.600564555744E+00 3.824567111772E-02 5.929684813850E-02 4.025957951384E-01 1.443364272937E-01 1.013248394294E-01 -2.170535071820E-01 -9.971749305527E-01 7.450677571193E-02 3.772284200209E+00 5.799802666182E-01 -3.211447418375E-01 4.899669733378E+00 1.243085121390E+00 1.472511119041E-01 -8.690613045760E+00 4.184451138164E+00 1.664122360764E+01 -8.072016704700E+01 -3.506850076655E-02 9.649222595478E-01 -5.345037705763E-02 2.974753649435E+00 -1.120699582177E+00 8.260695872426E+00 -2.658304543894E+00 -3.276496737293E+00 1.031706549393E+01 1.648476164479E+00 -4.405595705809E+01 1.870655914767E+02