#BIOSYM hessian 1
@Type: Hessian Update
@Units
 distance: 	A
 energy: 	Kcal/Mol
#header
@natom 67

#label
C1      C2      C3      C4      C5      C6      C7      C8      C9      C10     C11     C12     C13     C14     C15     C16     C17     C18     C19     C20     C21     C22     C23     H24     C25     C26     C27     C28     C29     C30     C31     C32     C33     C34     C35     C36     C37     C38     C39     C40     C41     C42     C43     C44     C45     C46     C47     C48     C49     H50     H51     H52     H53     H54     H55     H56     H57     H58     H59     H60     H61     H62     H63     H64     H65     H66     O67

#element
C  C  C  C  C  C  C  C  C  C  C  C  C  C  C  C  C  C  C  C  C  C  C  H  C  C  C  C  C  C  C  C  C  C  C  C  C  C  C  C  C  C  C  C  C  C  C  C  C  H  H  H  H  H  H  H  H  H  H  H  H  H  H  H  H  H  O 

#matrix
201
 2.783699384040E+03
 -2.264362741693E+01 2.817278771977E+03
 2.029241348016E+00 -6.835688961519E+01 1.954451001676E+02
 3.961564118529E+01 6.777453373527E+01 -1.792082427764E+00 2.791886797698E+03
 -2.443724853192E-01 -1.183393465182E+00 2.274153025243E-01 -2.320932819574E+01 2.765988507758E+03
 -6.521147054113E-02 2.293206199235E-01 8.346121105548E+00 4.461537976662E+00 -6.996553746149E+01 1.929879311658E+02
 -1.963006380810E+01 3.475229395508E+01 -7.816333475935E-01 -1.605828669586E-01 1.178989618844E-01 -8.667194103557E-02 2.813594708127E+03
 -3.377825861226E+01 5.957531950817E+01 -1.246396990460E+00 1.453470058588E-01 -9.989938910385E-02 9.140391054447E-04 -3.140097690342E+01 2.816860784688E+03
 7.715949069008E-01 -1.282999689075E+00 9.740484180779E+00 -1.336411696377E-02 5.297087975909E-03 -2.143472077724E-01 7.019840103965E+00 -6.840077995471E+01 1.975080068360E+02
 3.880946993418E+01 -6.776944377100E+01 1.831519306695E+00 -1.980038739193E+01 3.526340031375E+01 -1.050187645875E+00 4.181217892620E+01 7.207222174459E+01 -1.874991676232E+00 2.789482012148E+03
 -2.533813529582E-02 -4.797241225170E-01 2.298038275238E-02 -3.286426523393E+01 5.914043518770E+01 -1.165398177417E+00 -3.583237167602E-01 -9.463469868049E-01 1.847733749221E-01 -1.852718980263E+01 2.830441481831E+03
 3.174195888075E-02 3.565529787454E-01 9.408997603359E+00 8.890237917796E-01 -1.418904197865E+00 9.288453913057E+00 -2.727385204925E-03 4.622269027467E-01 9.199534532981E+00 3.428082717320E+00 -6.892764712253E+01 1.970039728227E+02
 -1.630797436236E-01 4.412401273600E-01 1.087541177218E-01 -1.616074261176E-01 1.152945729624E-01 -4.758915159621E-02 4.179364933122E+01 -7.316425933020E+01 2.116809828647E+00 -2.161934171633E+01 3.840617130845E+01 -1.125569797966E+00 2.635166395125E+03
 2.362169466739E-01 -5.962354499077E-01 1.935927079674E-01 3.192862080289E-01 -1.701546304326E-01 8.541651254975E-02 6.197794854725E-01 -8.910307100809E-01 1.872897429908E-01 -3.506789154975E+01 6.273919236371E+01 -1.450501449646E+00 -2.221647648902E+02 2.897567416193E+03
 6.650070136528E-02 7.349428973139E-02 2.920954381736E-01 -1.037655667166E-01 1.987140318699E-02 -1.209229859156E-01 2.113390171158E-01 1.572650837892E-01 1.073353004468E+01 8.296706009714E-01 -1.245207924839E+00 1.040679995105E+01 7.814233786439E+00 -7.469712601088E+01 1.571823873014E+02
 -1.232670971890E+03 4.433040996911E+02 -1.279596628548E+01 -4.648076707506E+02 -7.741330426966E+00 -1.296278936200E+00 2.437824723195E-01 -2.408646890687E-01 1.099488480191E-01 3.092000656352E-01 -5.469845784778E-01 1.202610827171E-01 2.222103605359E-01 -5.802048597550E-01 5.942957411816E-02 2.820943671862E+03
 4.392233179939E+02 -7.411434845693E+02 1.662926218450E+01 -6.855579072366E+00 -1.432374975986E+03 3.566179448297E+01 -2.049048179190E-02 8.507216932520E-02 2.037550145691E-01 -1.204827709969E-01 3.485591105319E-01 -2.635762767616E-01 -7.024186815609E-02 1.571015306005E-01 -6.602386122636E-02 3.573941361527E+00 2.781817094838E+03
 -1.338190359081E+01 1.801125297757E+01 -8.352717534056E+01 -1.029376615419E+00 3.430368953045E+01 -8.233239666241E+01 2.085189677222E-01 2.724186222029E-01 5.122286734458E+00 3.463839634938E-01 -1.886021818770E-02 -9.357847607161E+00 2.215219861083E-01 1.286460889736E-01 6.176289093843E-01 9.569777617015E+00 -6.257447574758E+01 1.953928005084E+02
 -1.194020632726E+03 -4.113987539193E+02 1.044730067278E+01 4.971264458684E-02 -5.875350892563E-02 1.872280022163E-01 -1.262891409981E+03 4.479783789475E+02 -1.408473581811E+01 -4.850385042989E+02 -1.207958529229E+01 -1.878479315582E-01 -3.170229891823E-02 -2.018467350951E-01 1.173285820183E-02 -1.953852061083E+01 -3.317880335579E+01 7.345846555583E-01 2.821727443091E+03
 -4.113181354763E+02 -7.017975850344E+02 1.653365974413E+01 -6.826154225205E-02 2.598791716509E-01 -2.565346819675E-01 4.496023749771E+02 -7.471433584944E+02 1.857282901190E+01 -1.417087320565E+01 -1.511910025650E+03 3.684591695494E+01 -1.752952099669E-01 2.290486541645E-01 -4.723029640061E-01 3.481387595189E+01 5.850670479080E+01 -2.020269332152E+00 -2.727882517465E+01 2.843231130909E+03
 1.061708118613E+01 1.633893557680E+01 -8.230594551605E+01 -1.562688109870E-02 -1.967581368395E-01 -8.990906549912E+00 -1.393525897399E+01 1.815745131349E+01 -8.635887559468E+01 -6.106668577200E-02 3.731348871555E+01 -8.656269357467E+01 6.757357263263E-02 -1.288753361109E-01 -9.650603399895E+00 -1.059798917040E+00 -1.298774313684E+00 9.328237373119E+00 3.530482469223E+00 -7.030301651966E+01 1.992233049438E+02
 2.382490123370E-02 -5.068117901492E-01 2.512156196937E-01 -1.220182103840E+03 -4.203019456166E+02 1.033631983714E+01 2.374327553636E-01 -1.108035882742E-01 2.918697766619E-02 -1.226243520197E+03 4.398824011833E+02 -1.274346320805E+01 2.085041563708E-01 -2.214460692608E-01 2.690051456022E-01 3.694370408218E+01 -2.955082550921E-01 -9.646606362988E-03 4.136734981865E+01 -2.806331506254E-01 3.400483193937E-01 2.807395219582E+03
 -2.202969992980E-01 1.172139923778E+00 -2.180977143997E-01 -4.226579429278E+02 -7.053656979726E+02 1.654076334231E+01 -1.955856451612E-01 1.825026514166E-01 1.669231962678E-01 4.378627622007E+02 -7.354649062848E+02 1.821535419164E+01 -2.140719452395E-01 2.041799964997E-01 -3.199903115560E-02 -6.613560232623E+01 2.720389772128E-01 2.216825871295E-01 7.028453196002E+01 -9.112523361460E-01 -5.819012737825E-02 -3.819676632529E-01 2.806333646057E+03
 5.296581604832E-02 -4.439371634299E-01 -9.148440740069E+00 1.112101730962E+01 1.712720563228E+01 -8.247346625084E+01 -5.473026393981E-02 6.614054938184E-02 4.316006459636E+00 -1.286679133986E+01 1.823230822264E+01 -8.470236361912E+01 2.223906714257E-01 4.561359119919E-01 5.328449301728E+00 1.494411493224E+00 7.990700309256E-02 8.939147522581E+00 -1.608812013280E+00 1.806289296497E-01 1.063211939560E+01 2.588324591884E+00 -7.367325414078E+01 1.983227396990E+02
 1.741502435969E-01 -7.366755558670E-01 -2.334675692922E-01 3.125494222875E-01 -2.267519065503E-01 1.179595397405E-01 -1.196570247748E+03 -4.070833667799E+02 8.491006705696E+00 1.878407199414E-01 -2.762475574587E-01 2.485942979418E-01 -5.208692697656E+02 7.477979914403E+00 -1.389672713104E+00 -4.734828534805E-01 1.395608827843E-01 -4.793145515874E-01 -1.982336358207E+01 -3.362878151758E+01 4.703747082121E-01 -4.790297330769E-01 4.496574737186E-01 -4.317018039294E-01 2.771332882216E+03
 -3.192148698772E-01 9.315245911730E-01 7.967648293657E-02 -4.893906288115E-01 3.801967130609E-01 -6.526708723465E-02 -4.158953572335E+02 -7.029971967401E+02 1.575179788673E+01 -4.723868351304E-01 5.439434270301E-01 -3.827165394247E-01 9.388449609206E+00 -1.634051452647E+03 4.296045480840E+01 8.934718885171E-01 -2.371400178995E-01 9.535428328809E-02 3.482268399857E+01 5.919376365144E+01 -9.038163802682E-01 5.334054939679E-01 -6.324951795296E-01 3.851505083416E-02 -3.118042917991E+01 2.957705572635E+03
 -1.789927147621E-01 -6.160069369823E-02 3.669963521981E+00 6.461164042628E-03 3.958752040654E-02 5.587585682283E-01 8.294027871905E+00 1.551579493163E+01 -8.434666235944E+01 7.701005237856E-02 -3.372342890587E-01 -1.022175247253E+01 -1.087922141540E+00 4.330679553838E+01 -7.953934062240E+01 -2.158097355772E-01 -1.521361804059E-01 -1.497565599497E+00 -7.982088512568E-01 -1.043767127310E+00 1.083977917820E+01 -1.602948569255E-01 9.204375777268E-02 8.408678044932E-01 8.506185774667E+00 -7.749480945833E+01 1.865327709098E+02
 2.666875911483E-01 -4.975732938362E-01 -1.136695982358E-01 2.052739910527E-01 -1.258171953548E-01 -6.144157996839E-04 4.434043498055E-02 -2.219792060474E-01 1.499352326427E-01 -1.195585731431E+03 -4.168165924888E+02 9.829461302041E+00 -1.335190435207E+03 4.943445238728E+02 -1.394992417946E+01 -2.557527390588E-01 1.073117583353E-01 -2.325473048232E-01 3.863121329357E+01 -1.248717283959E-01 -1.757572273378E-01 -1.957115448052E+01 -3.253075056490E+01 3.202146381473E-01 4.935824698601E+01 8.477100561931E-01 -1.858652397456E-01 2.881584676473E+03
 -1.250527772057E-01 3.374411724581E-01 2.329239373578E-02 -8.981253249862E-02 3.738997855816E-02 8.394377813098E-02 -4.697064211717E-02 1.777834668388E-01 -2.446362305289E-01 -4.082597233342E+02 -7.029436460617E+02 1.561256266405E+01 4.927912056144E+02 -8.221191657262E+02 1.986888108452E+01 1.751211331165E-01 -6.849905402186E-02 -2.313391690005E-01 -6.857709304529E+01 4.768744127689E-01 -8.440924199356E-03 3.436154579514E+01 5.821175211320E+01 -1.392971817576E+00 8.149699707616E+01 3.613468362163E-01 4.094998100205E-01 -9.703586893931E+01 2.844532203177E+03
 -1.237728182031E-01 -8.182554210327E-02 3.825386041769E+00 -2.286022453947E-01 2.479610169887E-01 5.143225924924E+00 -2.616498112776E-01 -3.362626016601E-01 -1.122075257236E+01 9.513830247471E+00 1.585814489585E+01 -8.448151651197E+01 -1.348440216643E+01 2.052053195204E+01 -7.841308228016E+01 -2.714281341866E-01 -3.549687248375E-01 -9.012095997521E-01 2.005062011661E+00 1.692837618890E-01 1.244436221884E+01 -5.763946534362E-01 -1.787663082118E+00 1.127243656030E+01 -2.514371717494E+00 1.743320960888E-01 1.325974970482E+01 4.770571062688E+00 -6.912108590898E+01 1.897205564875E+02
 6.364813949561E-03 5.771391856979E-02 -5.570540582663E-02 -7.754820956221E-02 7.577748652102E-03 -6.859460674164E-02 -1.021755458571E-01 1.126323912422E-01 -3.850655842837E-03 -7.844002591027E-02 -1.506351589862E-03 4.419246916217E-02 -1.104653130545E-01 2.105797089538E-01 -9.056445607314E-02 6.936801062794E-02 3.478541471422E-02 -1.851453928631E-01 7.392221435327E-02 -1.811241947520E-02 -9.517323066312E-02 5.886516412521E-03 2.678747008472E-02 -1.408197792523E-01 1.464057163972E-01 -2.283095230041E-01 1.622427019703E-02 1.615737911625E-01 -4.668340594303E-02 -2.099594629149E-01 2.809912131995E+03
 7.410864984974E-02 -3.512209310961E-02 -3.734630705638E-02 7.626183373408E-02 -4.380815484983E-02 1.057428352846E-01 -4.165301657015E-03 -2.264198095964E-02 -5.262612843981E-02 5.048259246387E-02 -7.535643490089E-02 3.828590231793E-02 3.144612333051E-02 -9.856371035630E-02 -4.733866447377E-02 -1.826991405056E-01 5.022539978896E-02 7.651071171654E-02 6.203261157719E-04 3.990130249520E-02 -9.153395334251E-02 -1.071499036097E-01 1.112494499441E-01 -5.238384868664E-02 -2.414243847618E-02 9.327653736273E-02 1.485960850729E-01 -4.241454709031E-02 4.647230188257E-02 5.862021773235E-02 1.562501921140E+00 2.799308307502E+03
 3.852090510780E-02 -9.301564656987E-03 -1.518004057718E-01 6.323863471348E-02 1.703100071976E-01 1.013542999058E-01 -3.988941594078E-02 -4.992427571244E-02 -9.077763621971E-02 -4.167316944601E-02 -1.292853812103E-02 8.826654513266E-02 -7.818181814454E-02 -6.347285854470E-02 -1.417607884065E-01 3.236621620603E-02 -2.098590264683E-02 4.089501817411E+00 4.333683155629E-02 1.007815123878E-01 -1.625071972168E-01 -3.777688470532E-02 2.741316869894E-02 -1.366275205540E-01 1.525930558480E-01 3.264654345165E-03 3.171022879147E-01 1.086483202914E-01 7.227891737224E-02 1.122697444496E-01 -2.179709011033E+01 -5.484760944769E+01 1.949883831015E+02
 -2.953437188425E-02 -2.204688096613E-02 -9.939666110918E-02 8.089536965241E-02 2.552078335388E-02 8.122271819458E-02 1.420742790038E-02 -1.094745324981E-01 -5.907564380044E-03 4.251659168123E-02 -1.619107317607E-02 1.284713065902E-01 1.933287108280E-02 -2.530701230154E-01 -1.307505552628E-01 3.646100558387E-02 -2.046583939222E-02 -3.127144962388E-01 -4.815666184033E-02 1.111310668397E-01 -2.182178707788E-01 -1.171563755190E-01 3.035192086090E-02 -1.932562624894E-01 7.676179475562E-02 1.198548481701E-01 2.058460951187E-01 -3.805157448926E-02 1.112675979310E-01 -1.145043889083E-02 4.180963170361E+01 7.170979748210E+01 -2.334690887245E+00 2.783320504583E+03
 3.019160885486E-01 -6.683736051227E-01 1.124248500494E-01 3.936137370683E-01 -2.876069062815E-01 -1.541481540104E-02 3.084618166942E-01 -3.204522442219E-01 6.293313976870E-02 3.562260306952E-01 -3.088667354356E-01 -1.462600804304E-02 2.850569226135E-01 -6.154172878277E-01 1.233640662496E-01 -5.013870847759E-01 2.388020869693E-01 1.533219845836E-01 -1.959535003973E-01 2.403756130028E-01 4.524657400667E-02 -3.038939989542E-01 3.120795360448E-01 7.738440159139E-02 -4.947871140577E-01 8.593007679626E-01 -1.609357510494E-01 -3.638263075343E-01 1.560837754071E-01 7.303756830916E-02 -8.793152672431E-01 -1.886931959535E+00 1.238512609886E-01 2.773145371011E+02 2.856000743137E+03
 1.048266254658E-02 5.654340514044E-02 1.901933539179E-01 -4.011782572151E-02 4.382310814534E-03 -3.337362009193E-02 7.430039295730E-02 2.136759766393E-02 -5.451420707603E-03 2.073318227715E-02 5.631338045846E-02 -8.918851551132E-02 5.585204370524E-02 1.122073122012E-01 2.020364735233E-01 8.396336979427E-03 -6.773644190720E-02 3.001717116741E-01 -1.650683666653E-02 -1.006930721897E-01 1.497398999283E-01 8.057215790618E-02 -6.158530157951E-02 9.704080512125E-02 -1.236252768493E-01 2.320572437618E-02 -2.710386545641E-01 -5.171242138954E-02 -5.954434085234E-02 4.787486972699E-02 -4.470916986991E-01 -3.179593701094E-01 1.085077246244E+01 -2.552181958335E+01 -7.169939111564E+01 1.514066526216E+02
 -2.046615429162E+01 -3.382173756778E+01 6.842990315713E-01 3.846190174157E+01 -3.215850801885E-01 5.081967719953E-01 -1.807547978450E-01 1.508738836597E-01 -5.201835617354E-02 -1.361990824978E-01 2.038099051614E-01 -7.646909456161E-03 -1.031519659865E-01 2.376900141319E-01 -4.991894267723E-02 -1.242736627723E+03 -4.368181000689E+02 5.082561364621E+00 7.705710847515E-02 -2.235681517330E-01 -9.035106286971E-02 2.878099638084E-02 -1.590477588252E-01 -7.458287181265E-02 2.070312904292E-01 -3.719835445485E-01 4.370137568812E-02 9.964419175403E-02 -1.043211771411E-01 -7.734669561355E-02 -1.957795642474E+01 3.395495945145E+01 -5.045926117142E-01 4.735263051710E-02 1.545937574915E-01 -6.043816244816E-02 2.775271347923E+03
 3.562238738871E+01 6.182464104665E+01 -7.733984600848E-01 -6.843204069993E+01 1.083083846638E+00 -2.427052034094E-01 -2.309151556449E-01 2.735739815201E-01 -7.383969854668E-02 -6.725132960837E-01 5.348094761853E-01 -8.539548870373E-02 -5.045210883209E-01 9.466899510007E-01 2.762915772841E-02 -4.406144103111E+02 -7.247365718510E+02 1.153780037653E+01 2.748552330348E-01 -3.305804724387E-01 1.708812736406E-01 5.558516429870E-01 -7.304556630377E-01 2.506171286349E-01 5.929787668533E-01 -1.070724385214E+00 -2.155429978640E-02 6.510770535698E-01 -3.471098119304E-01 1.710710770283E-02 -3.294631376068E+01 5.689550886051E+01 -1.122526929013E+00 3.409542907599E-01 8.105318366513E-01 1.117229548727E-01 1.848195478478E+01 2.803997483885E+03
 -1.103233087523E+00 -1.670906810140E+00 9.844606733570E+00 2.063115445017E+00 4.087392564788E-01 9.179579092936E+00 -3.044430945029E-02 -1.991175162244E-01 -2.468754487784E-01 -1.406505101221E-01 1.256202771121E-01 -3.064510450704E-01 1.086790627223E-02 5.275331518905E-03 1.087665524182E-01 4.499108333907E+00 1.147249134039E+01 -8.294946053638E+01 1.744223786621E-01 2.261348309806E-01 5.122625769195E+00 2.078466559681E-01 -1.870521321587E-01 5.265356038236E+00 -1.189396280580E-01 1.918696117753E-01 4.835791975992E-01 -1.073561982529E-01 -4.661108226804E-02 1.272287163136E+00 4.976735283944E-01 -1.808949410476E+00 8.793430711860E+00 -2.151066701321E-02 3.082786387664E-02 6.883277356747E-03 6.800222313162E+00 -5.068885798872E+01 1.925054408939E+02
 -4.093427491550E-02 -1.469153186423E-03 -5.758947582071E-03 -1.894617724053E+01 -3.141615220835E+01 7.461625989691E-01 4.527248943637E-02 -8.914262673989E-02 -3.443106817341E-02 -1.962296129839E-02 4.141974284889E-02 -5.683857835287E-02 -8.796843511004E-03 -2.259052239482E-02 1.995025770604E-03 2.274046953993E-01 -9.030298912306E-02 -9.310337779849E-02 -3.112813648207E-02 4.054141536570E-02 1.403973585958E-01 6.585056467005E-02 -9.742071759335E-02 1.482896433650E-01 -1.079940854508E-02 6.623953267065E-02 9.732361260612E-02 1.666259087632E-03 1.103609783052E-02 2.846737443863E-01 3.946883660393E+01 -6.936802585364E+01 1.720046544783E+00 -2.306074663556E+01 4.023225768734E+01 -6.707933957397E-01 3.980181588848E+01 6.700505800387E+01 -1.630041291113E+00 2.770523607193E+03
 -1.125244104614E-01 1.676122219125E-01 -1.745952603067E-01 3.330467678568E+01 5.547247550016E+01 -1.269681593087E+00 -1.439246664928E-01 2.449334795078E-01 -2.403241560731E-02 -1.440794372105E-01 7.435764401204E-02 -7.155500182278E-02 -2.005649190281E-01 5.468601425440E-01 -2.550086223475E-02 1.469623532458E-01 -4.681637384699E-01 3.356573422987E-02 8.173938991445E-02 -1.432692019797E-01 8.858198767034E-02 1.644854304858E-01 -4.273931834901E-02 1.633224043543E-01 1.891505646403E-01 -5.020651296140E-01 -4.336243401282E-02 2.947165130211E-01 -1.502135788154E-01 -1.095016466677E-01 -2.892425610117E-01 1.927352742676E-01 -3.468205604616E-02 -4.194896273806E+01 7.443119172946E+01 -1.337078751342E+00 -4.563154371484E-02 -2.549462426880E-01 2.007420050536E-01 -3.625389878690E+01 2.755987732914E+03
 -1.511042149863E-02 -2.322335458087E-02 -1.250194632884E+00 -7.612228621788E-01 -1.685364478877E+00 9.046658598120E+00 -4.345548105633E-01 -1.309161706614E-01 -1.126381694366E+00 -5.177161889929E-02 -1.352044335232E-01 -2.041591914018E-01 -1.537288480460E-01 1.490339660112E-02 -7.408499368770E-01 -6.609914207299E-01 -8.184281003999E-01 -1.127651657843E+01 1.450791424955E-01 3.459928463294E-01 4.382301483947E-01 1.353389775187E-02 4.290080207431E-01 5.288377845145E+00 4.918711652974E-01 -1.856983751642E-01 3.150600970350E+00 4.560166737077E-02 3.784209950424E-01 3.595715193529E+00 -3.298211948269E-01 1.133042613113E+00 1.016420134750E+01 1.620471673227E+00 -2.362156244728E+00 1.227178374734E+01 -6.074983165435E-02 4.690105570034E-01 9.439424114910E+00 -9.427114118285E+00 -6.053392062065E+01 1.911448462347E+02
 2.178805399946E-01 -4.983007897484E-01 1.055897214561E-01 2.112891878010E-01 -1.900033419725E-01 6.038170807603E-03 1.868149685422E-01 -1.555883037903E-01 -3.266931550684E-03 2.341189499519E-01 -1.928466678326E-01 -1.050449932529E-01 2.171918855378E-01 -3.111044688614E-01 1.546241019550E-01 -4.412739841221E-01 1.401041912275E-01 2.457569312468E-01 -9.156737869686E-02 1.037151512750E-01 2.061722270587E-01 -1.385842206395E-01 2.040722969073E-01 2.462566433748E-01 -3.895213246293E-01 5.386558449738E-01 -1.016924456269E-01 -2.828089000095E-01 6.435363019024E-02 2.487358973701E-01 -1.234477401367E+03 4.338534746009E+02 -1.909079316449E-01 -5.083333506997E+02 -1.714418146106E+01 4.153435301730E+00 1.599230184925E-01 4.423474092680E-01 -6.896844258405E-02 8.490896404759E-02 2.927368581080E-01 -1.917815598881E-02 2.843660116570E+03
 -2.824736666712E-01 4.861250793887E-01 -8.419693930305E-02 -3.839931649670E-01 2.337422777188E-01 -4.484533152647E-02 -2.672328897895E-01 3.181529044896E-01 -2.408769165298E-02 -3.227402967599E-01 2.808523172276E-01 -4.926410619271E-02 -2.648828012287E-01 6.515414645023E-01 -5.854470792175E-02 4.814225093795E-01 -2.622401382789E-01 1.188941017362E-02 1.834095229324E-01 -2.342879912414E-01 8.644706907894E-02 3.256475978029E-01 -2.974866534126E-01 3.791023015610E-02 4.013673932349E-01 -7.985924123407E-01 2.723565648185E-02 3.440882368383E-01 -1.876021355176E-01 -7.051745108888E-02 4.359143450434E+02 -7.313447487068E+02 1.099063820963E+01 -2.658770648116E+01 -1.539748376211E+03 3.762003236716E+01 -9.735033389920E-02 -6.074227749921E-01 2.844573977164E-01 1.704896884419E-01 -5.317091237976E-01 -2.012316659547E-01 2.944013008842E+01 2.889390998353E+03
 -3.518025636847E-02 -1.347936628478E-01 -3.752573677986E-01 -9.944667581137E-02 1.341609012397E-02 2.519770352836E-01 -1.447491249701E-01 -1.664735991346E-02 -4.258780846657E-01 -4.874892342260E-02 5.768080690656E-02 -3.474563513792E-01 -6.697038249973E-03 1.880220405077E-01 -9.275324874379E-02 -1.043247954125E-01 -3.717085049176E-02 -5.199372260855E-01 9.290414391214E-02 2.072566744519E-02 6.692010828246E-01 1.250263863071E-01 -9.099040503981E-02 9.681991323014E-01 -1.244213571286E-02 -8.402163536019E-02 1.063798988256E+00 -1.023607004403E-01 -7.448047290214E-03 1.803971122604E+00 -7.563972644967E-01 1.101542051757E+01 -8.534487568865E+01 4.326453849010E+00 3.761743483110E+01 -7.820969620255E+01 1.179673539814E-01 -7.082764248481E-02 4.936107500127E+00 -9.206315962916E-02 -3.003288990976E-01 -9.046489280240E+00 -2.501717959414E+01 -6.826170379847E+01 1.868105848103E+02
 -1.139327312152E-01 5.168064690154E-01 1.824017003185E-01 -6.960854040005E-02 1.356831850434E-01 -2.496730082387E-02 -4.060895585370E-03 6.745235194646E-02 5.330868231922E-02 -1.286064222831E-01 1.514685869763E-01 -6.595401653087E-02 -4.917058146226E-02 1.705479568369E-01 1.342819563965E-01 -1.952536357810E+01 3.453519166859E+01 -3.669894835918E-01 -2.814148508711E-03 -1.862320002700E-01 1.218462331728E-01 2.229050079001E-01 -2.337095329256E-01 1.360620231955E-01 4.020230499815E-02 -2.270125136529E-01 -2.227698926452E-01 5.788576708729E-02 -8.599818448584E-02 -3.035442883806E-02 -1.222142575595E+03 -4.248402050151E+02 1.766879448666E+01 -5.766526450816E-02 2.752110456048E-01 -7.922023427276E-02 -1.172708258486E+03 4.242432747645E+02 -8.875162064838E+00 -4.724432039734E+02 -8.945388037409E+00 1.660884111769E+00 -1.952698173561E+01 -3.413950057857E+01 1.001949777693E+00 2.751685121750E+03
 8.533995720845E-02 -5.904801791767E-01 -1.748150068230E-02 3.793357786695E-01 -2.609096265500E-01 -4.176205365144E-01 1.194799130454E-01 -2.490615020566E-01 3.284844750349E-02 2.864222040092E-01 -2.690052110012E-01 2.129296864963E-01 1.897163686346E-01 -6.377969885297E-01 -1.923225055601E-01 -3.337226928404E+01 5.777471328807E+01 -1.552561172616E+00 -1.235441906985E-01 3.093271168711E-01 -3.112878220179E-01 -3.866363877625E-01 3.565316598435E-01 -3.218029066865E-01 -1.304691860227E-01 5.823850537976E-01 2.399080386408E-01 -2.439582510756E-01 2.535962820928E-01 -9.878980469199E-02 -4.278920360825E+02 -7.126301957945E+02 1.846259982232E+01 3.343177520123E-02 -5.799076781903E-01 -4.929223201193E-01 4.260228663966E+02 -7.146516312044E+02 1.474529593984E+01 6.984503673834E-01 -1.496201166376E+03 3.230051755664E+01 3.409429085507E+01 6.013380895736E+01 -1.155897895362E+00 1.971695438700E+00 2.806920981188E+03
 2.273885823305E-01 4.577978409902E-03 5.108267451643E+00 -5.595046017128E-01 -2.526297489665E-02 -9.008480505216E+00 2.967027192636E-01 -9.159657504767E-02 3.026554934757E-02 -7.459718656926E-02 2.332973065615E-01 -6.195784141612E-01 1.431506774899E-01 2.508709849061E-01 7.045822419439E-01 7.733246578302E-01 -2.534530767137E-01 1.011696661224E+01 -4.911260978634E-02 -1.880327963708E-01 1.125577837501E+00 5.964873257488E-01 -5.054019329791E-01 1.197708511486E+00 -5.621526837784E-01 2.394291529148E-01 -7.130883260584E-01 -2.327193523250E-01 -2.647931196446E-01 8.975429045189E-01 1.779069142866E+01 1.725253425042E+01 -8.312113474893E+01 1.175225372249E-01 7.697367548905E-03 -1.017796256845E+01 -8.916116116932E+00 1.311926194151E+01 -8.013161984735E+01 1.757784723685E+00 3.346522338066E+01 -8.457787571361E+01 -4.333381730732E-01 -3.580893970347E-01 9.954999086287E+00 -1.024047706909E+01 -6.361168764242E+01 1.937049194590E+02
 -1.727842327916E-01 5.001346865378E-01 -1.993308898196E-02 -2.974182356524E-01 1.918928831970E-01 -4.481460135596E-02 -2.250130923433E-01 2.697454447783E-01 -2.328033356838E-02 -2.668861586609E-01 2.136119224410E-01 -9.361840180907E-03 -2.087471805215E-01 4.935801583346E-01 -4.478618667207E-02 3.159676563543E-01 -1.181103348663E-01 -1.132360454592E-02 1.571371973396E-01 -2.074192081621E-01 -1.764855010068E-02 2.432084155752E-01 -2.133255683984E-01 -6.061135302383E-02 3.271878504565E-01 -6.419504754266E-01 1.439812328224E-03 2.739395868670E-01 -1.442912782018E-01 -1.686921668917E-01 -1.928678886485E-01 1.057639417539E-01 -1.665527214790E-02 -1.505407134516E+03 -5.278881491966E+02 2.354477547982E+01 -1.563224955451E-01 -7.405161286915E-01 1.043402931115E-01 -1.278129454528E+03 4.343070149988E+02 -4.788516841028E+00 4.914766188628E+01 -1.778567747733E+00 -2.945734092189E-01 3.923499661610E+01 3.536259148444E-01 -5.324216435858E-01 3.073390548675E+03
 1.057403714111E-01 -1.620813750045E-01 1.458386272482E-01 6.999666824721E-02 -1.049282676794E-01 8.728416192408E-03 9.382226048488E-02 5.447873975420E-03 6.267435337409E-02 7.804462346483E-02 -7.516076853089E-02 -1.073577211419E-01 7.378472629580E-02 3.318337280097E-02 1.655735970823E-01 -1.589169382870E-01 7.331172266637E-02 3.916319971365E-01 -3.334507585877E-02 -3.872181337429E-02 1.917334704685E-01 3.287344241751E-03 6.070928981495E-02 1.632873085734E-01 -2.270131955980E-01 1.520948551945E-01 -3.148929804815E-01 -7.928744694716E-02 -5.820864870062E-02 -7.525253577308E-02 2.000149417950E-02 -2.995502621685E-03 -7.688576932526E-02 -5.382279989304E+02 -8.647181374445E+02 2.448699254487E+01 -9.037638484586E-03 -5.465690098974E-02 6.227286355957E-02 4.195364195367E+02 -7.256328224332E+02 1.339610905864E+01 -8.579742385777E+01 2.062312553353E+00 6.508628176032E-01 7.220852277814E+01 -2.137124553725E-01 -1.123272048106E-01 9.065993285043E+01 2.537487353861E+03
 1.425677411907E-01 8.874831823904E-02 7.796249549695E-01 1.621884417296E-01 2.415154880373E-02 3.952994879265E+00 3.263000243605E-01 7.731767191166E-02 8.312528994689E-01 9.547341828241E-02 -9.629103471532E-02 3.409555959384E-01 4.451441068280E-02 -1.536410844342E-01 3.594693289915E-01 1.415395730261E-01 1.654975033078E-01 1.466751341976E+00 -1.949916382915E-01 -1.348839576112E-01 -6.657335876492E-01 -4.747348129813E-02 6.665931661730E-02 -1.151481045135E+00 -2.218127233457E-01 1.674968821680E-01 -2.163927785824E+00 1.166593286891E-01 -1.248100662959E-01 -2.958715264821E+00 1.130314117652E-01 -3.950224362151E-01 -1.069885078322E+01 2.355480901450E+01 2.439864965297E+01 -7.059083690957E+01 -8.184487136323E-02 1.941937379208E-01 3.979586382640E+00 -4.270602384367E+00 1.333082498727E+01 -7.989693313576E+01 1.954387713614E+00 6.908047868090E-02 9.729839930082E+00 -1.547692765709E+00 1.439757261050E-01 1.031537233543E+01 -2.072333413323E+01 -6.105414900041E+01 1.547005224868E+02
 3.892868636732E-01 -9.837958010174E-01 8.953891988084E-02 -1.227265939499E+03 4.453805852299E+02 -1.366475567646E+01 2.645974954690E-01 -1.618228903921E-01 -1.438566811300E-02 3.764270447508E-01 -2.743594678731E-01 -3.167362162672E-01 3.319914756458E-01 -2.899520071887E-01 3.401190460741E-01 3.954149120915E+01 -1.268634481654E-01 8.710643204963E-01 -1.090279122393E-01 1.123765210182E-01 4.863012311155E-01 -2.020771681617E+01 3.598149369904E+01 -6.475565288804E-01 -7.096577461054E-01 7.759426967613E-01 -2.812078384482E-01 -4.489680560535E-01 -1.372248067446E-02 4.415414842047E-01 -6.444341082610E-03 -1.447199705467E-01 -3.263083410364E-01 -1.548427167483E-01 -4.653400652738E-01 1.146179481124E-01 5.035272225469E-01 8.791488502923E-01 8.471096912328E-02 -1.136692729398E+03 -3.909938149585E+02 1.128990804243E+01 -2.293935028532E-01 4.767995823999E-01 1.287487865744E-01 3.709408696878E+01 -6.327370850172E-01 7.930659509331E-01 -1.738939059185E+01 -3.256702608310E+01 9.099494599846E-01 2.731039745430E+03
 4.592493219260E-02 6.237060297207E-02 2.098004125909E-01 4.552717624612E+02 -7.409797363635E+02 1.977875505776E+01 -9.496275272733E-03 -4.267682565462E-02 1.061480451376E-01 -2.562869385317E-02 -5.820172577861E-02 3.293266069672E-01 3.032292476015E-02 -2.476168458072E-01 -8.518391451771E-02 6.700873640633E+01 -1.215610945025E-01 2.729474685640E-01 3.101077520739E-02 4.281718214845E-02 -3.041070250973E-01 -3.331356769514E+01 5.939613933632E+01 -1.962398401761E+00 7.273723425741E-02 8.775663701148E-02 -9.946916216240E-02 -2.730501679250E-02 8.837124162522E-02 -4.692578863936E-01 8.464863971567E-02 -2.580482415835E-02 1.514434237916E-01 2.908891731388E-02 -3.957088820734E-02 8.122855009727E-02 1.083421135568E-01 -2.284700040556E-01 -3.025311970720E-01 -3.896156068989E+02 -6.682959656205E+02 1.686594109600E+01 -1.371056105638E-01 1.054152231845E-01 -1.195540235520E-01 -6.493615507606E+01 1.094876365377E-01 -2.559180088237E-01 3.130574998337E+01 5.739875293956E+01 -9.506890030261E-01 -6.659039112605E+00 2.817660775336E+03
 -7.376485495750E-02 3.256657375908E-01 4.748401861291E+00 -1.487569499455E+01 2.017050875184E+01 -8.301738991052E+01 5.110590785457E-02 6.830973877030E-02 -4.878114362901E-02 1.119337706258E-01 2.347849957312E-01 4.397219348097E+00 7.556448000288E-02 1.128059138826E-01 1.715344433299E-01 -1.329369856683E+00 6.504578648262E-02 9.120639848864E+00 -8.571826965684E-02 -2.355917226105E-01 4.914003349725E-01 9.703088474201E-01 -1.499228071226E+00 1.023429917965E+01 -1.846004941722E-01 -2.749053052091E-02 -4.212080427113E-03 -1.391994331033E-01 -4.206467138870E-02 5.912450121277E-01 2.268814485705E-01 1.623048292958E-01 4.112217542127E+00 -3.135265778329E-01 3.830658480386E-01 5.335327764625E+00 -2.930129420944E-01 -4.972143755845E-01 -8.631448187960E+00 1.247235704867E+01 1.608716334920E+01 -8.089709151077E+01 2.052496931816E-01 -3.131082923591E-01 2.896011088104E-01 1.237800450286E+00 4.173007227623E-01 8.618015928989E+00 -3.523555359708E-01 -6.654503654688E-01 9.599353850106E+00 1.465144990971E+00 -8.199453796062E+01 1.890945924721E+02