#BIOSYM hessian 1
@Type: Hessian Update
@Units
 distance: 	A
 energy: 	Kcal/Mol
#header
@natom 67

#label
C1      C2      C3      C4      C5      C6      C7      C8      C9      C10     C11     C12     C13     C14     C15     C16     C17     C18     C19     C20     C21     C22     C23     H24     C25     C26     C27     C28     C29     C30     C31     C32     C33     C34     C35     C36     C37     C38     C39     C40     C41     C42     C43     C44     C45     C46     C47     C48     C49     H50     H51     H52     H53     H54     H55     H56     H57     H58     H59     H60     H61     H62     H63     H64     O65     H66     H67

#element
C  C  C  C  C  C  C  C  C  C  C  C  C  C  C  C  C  C  C  C  C  C  C  H  C  C  C  C  C  C  C  C  C  C  C  C  C  C  C  C  C  C  C  C  C  C  C  C  C  H  H  H  H  H  H  H  H  H  H  H  H  H  H  H  O  H  H 

#matrix
201
 2.781952145680E+03
 -1.681772268302E+01 2.805541064902E+03
 0.000000000000E+00 0.000000000000E+00 0.000000000000E+00
 3.902079625507E+01 6.672285014284E+01 0.000000000000E+00 2.799246945818E+03
 -1.663504936843E-01 -1.888519661933E-01 0.000000000000E+00 -2.532162139840E+01 2.767640096193E+03
 0.000000000000E+00 0.000000000000E+00 0.000000000000E+00 0.000000000000E+00 0.000000000000E+00 0.000000000000E+00
 -1.918277025484E+01 3.401478445175E+01 0.000000000000E+00 -1.734572198910E-02 -8.259424152786E-02 0.000000000000E+00 2.798498884135E+03
 -3.320762667500E+01 5.906161841997E+01 0.000000000000E+00 1.589896287924E-02 2.790126465940E-02 0.000000000000E+00 2.756641246759E+01 2.755018668928E+03
 0.000000000000E+00 0.000000000000E+00 0.000000000000E+00 0.000000000000E+00 0.000000000000E+00 0.000000000000E+00 0.000000000000E+00 0.000000000000E+00 0.000000000000E+00
 3.743384548681E+01 -6.655012828682E+01 0.000000000000E+00 -1.947878003882E+01 3.464840227534E+01 0.000000000000E+00 3.962291253870E+01 6.893329685267E+01 0.000000000000E+00 2.799807960538E+03
 -1.152827659742E-01 1.065174509226E-01 0.000000000000E+00 -3.305370964223E+01 5.907858539274E+01 0.000000000000E+00 -5.650793792852E-02 -1.380552154540E-01 0.000000000000E+00 -5.991218823760E-01 2.803303897574E+03
 0.000000000000E+00 0.000000000000E+00 0.000000000000E+00 0.000000000000E+00 0.000000000000E+00 0.000000000000E+00 0.000000000000E+00 0.000000000000E+00 0.000000000000E+00 0.000000000000E+00 0.000000000000E+00 0.000000000000E+00
 -3.519344131743E-02 7.349274195917E-02 0.000000000000E+00 -3.216305915115E-02 -7.057097992911E-02 0.000000000000E+00 5.122593701972E+01 -8.308404315717E+01 0.000000000000E+00 -2.156782805957E+01 3.713589164409E+01 0.000000000000E+00 2.606449057448E+03
 2.752862514326E-02 -5.207111847587E-02 0.000000000000E+00 2.840307386540E-02 4.968581318429E-02 0.000000000000E+00 -1.546407330174E-01 1.929553159867E-01 0.000000000000E+00 -3.539512421440E+01 6.124161430358E+01 0.000000000000E+00 -1.747632922806E+02 3.052475215151E+03
 0.000000000000E+00 0.000000000000E+00 0.000000000000E+00 0.000000000000E+00 0.000000000000E+00 0.000000000000E+00 0.000000000000E+00 0.000000000000E+00 0.000000000000E+00 0.000000000000E+00 0.000000000000E+00 0.000000000000E+00 0.000000000000E+00 0.000000000000E+00 0.000000000000E+00
 -1.221826493521E+03 4.407870799251E+02 0.000000000000E+00 -4.640048113121E+02 -4.672203934819E+00 0.000000000000E+00 6.474721466861E-02 -3.823021614744E-02 0.000000000000E+00 4.577706291680E-02 -4.389297034489E-02 0.000000000000E+00 6.813191604373E-02 -5.249285894681E-02 0.000000000000E+00 2.818915814209E+03
 4.348641430096E+02 -7.318151167882E+02 0.000000000000E+00 -2.753353369244E+00 -1.430814655201E+03 0.000000000000E+00 -9.357841366295E-02 4.123294258089E-02 0.000000000000E+00 -1.525595809418E-01 4.668070328681E-02 0.000000000000E+00 -1.306689271755E-01 8.752181374906E-02 0.000000000000E+00 3.800198125758E+00 2.772655803134E+03
 0.000000000000E+00 0.000000000000E+00 0.000000000000E+00 0.000000000000E+00 0.000000000000E+00 0.000000000000E+00 0.000000000000E+00 0.000000000000E+00 0.000000000000E+00 0.000000000000E+00 0.000000000000E+00 0.000000000000E+00 0.000000000000E+00 0.000000000000E+00 0.000000000000E+00 0.000000000000E+00 0.000000000000E+00 0.000000000000E+00
 -1.199091771117E+03 -4.141800300363E+02 0.000000000000E+00 7.604497590764E-02 4.281631897007E-02 0.000000000000E+00 -1.240105643446E+03 4.396559267037E+02 0.000000000000E+00 -4.691812768603E+02 -1.365378484869E+00 0.000000000000E+00 5.346644161432E-02 -6.893149450319E-02 0.000000000000E+00 -1.926972120827E+01 -3.255228070817E+01 0.000000000000E+00 2.793936777468E+03
 -4.123701531627E+02 -6.959964349162E+02 0.000000000000E+00 -5.979120535843E-02 -1.316698325796E-02 0.000000000000E+00 4.480080171155E+02 -7.300805158470E+02 0.000000000000E+00 -4.196551487385E+00 -1.457995232778E+03 0.000000000000E+00 -3.213073578965E-02 7.667562693181E-02 0.000000000000E+00 3.418368100295E+01 5.820497669880E+01 0.000000000000E+00 -2.529237908975E+01 2.765248601843E+03
 0.000000000000E+00 0.000000000000E+00 0.000000000000E+00 0.000000000000E+00 0.000000000000E+00 0.000000000000E+00 0.000000000000E+00 0.000000000000E+00 0.000000000000E+00 0.000000000000E+00 0.000000000000E+00 0.000000000000E+00 0.000000000000E+00 0.000000000000E+00 0.000000000000E+00 0.000000000000E+00 0.000000000000E+00 0.000000000000E+00 0.000000000000E+00 0.000000000000E+00 0.000000000000E+00
 7.596081197676E-02 -4.064953468856E-02 0.000000000000E+00 -1.222140176479E+03 -4.211892216713E+02 0.000000000000E+00 -1.328977249303E-03 -2.613109513638E-02 0.000000000000E+00 -1.218865829409E+03 4.355777747613E+02 0.000000000000E+00 3.252105909272E-02 -7.352059973097E-03 0.000000000000E+00 3.740022129091E+01 -1.131909671776E-01 0.000000000000E+00 3.966571540974E+01 -3.803157114969E-03 0.000000000000E+00 2.803475171249E+03
 1.759836901147E-02 -2.031656727838E-02 0.000000000000E+00 -4.241685186960E+02 -7.073758704811E+02 0.000000000000E+00 2.585974561059E-02 3.122079581846E-04 0.000000000000E+00 4.384718746257E+02 -7.307763935144E+02 0.000000000000E+00 3.057031953553E-02 -2.046246741898E-02 0.000000000000E+00 -6.674531239969E+01 2.958658558939E-01 0.000000000000E+00 6.766369526149E+01 -1.013589925956E-01 0.000000000000E+00 1.205386295180E+00 2.797191914676E+03
 0.000000000000E+00 0.000000000000E+00 0.000000000000E+00 0.000000000000E+00 0.000000000000E+00 0.000000000000E+00 0.000000000000E+00 0.000000000000E+00 0.000000000000E+00 0.000000000000E+00 0.000000000000E+00 0.000000000000E+00 0.000000000000E+00 0.000000000000E+00 0.000000000000E+00 0.000000000000E+00 0.000000000000E+00 0.000000000000E+00 0.000000000000E+00 0.000000000000E+00 0.000000000000E+00 0.000000000000E+00 0.000000000000E+00 0.000000000000E+00
 4.033400758400E-02 -5.572198596753E-02 0.000000000000E+00 2.506357823667E-02 6.571179197554E-02 0.000000000000E+00 -1.232182804665E+03 -4.470552604067E+02 0.000000000000E+00 6.396563118120E-02 3.289926959835E-03 0.000000000000E+00 -5.675377083850E+02 -9.836135714120E-01 0.000000000000E+00 -5.898996283442E-02 9.403792501691E-02 0.000000000000E+00 -2.156988971574E+01 -3.732567618148E+01 0.000000000000E+00 -2.263201501436E-02 -2.703835629079E-02 0.000000000000E+00 2.598875694685E+03
 -2.213390934665E-02 2.251570926527E-02 0.000000000000E+00 -9.712047846405E-03 -3.174635773566E-02 0.000000000000E+00 -4.620184151960E+02 -7.759298599967E+02 0.000000000000E+00 -4.416983542342E-02 3.331052011236E-02 0.000000000000E+00 -1.129948147062E+01 -1.818590395790E+03 0.000000000000E+00 3.255241222534E-02 -3.730628589509E-02 0.000000000000E+00 3.490885607587E+01 6.057152980704E+01 0.000000000000E+00 4.412090056600E-04 3.403452073776E-03 0.000000000000E+00 1.867031918365E+02 3.033343002956E+03
 0.000000000000E+00 0.000000000000E+00 0.000000000000E+00 0.000000000000E+00 0.000000000000E+00 0.000000000000E+00 0.000000000000E+00 0.000000000000E+00 0.000000000000E+00 0.000000000000E+00 0.000000000000E+00 0.000000000000E+00 0.000000000000E+00 0.000000000000E+00 0.000000000000E+00 0.000000000000E+00 0.000000000000E+00 0.000000000000E+00 0.000000000000E+00 0.000000000000E+00 0.000000000000E+00 0.000000000000E+00 0.000000000000E+00 0.000000000000E+00 0.000000000000E+00 0.000000000000E+00 0.000000000000E+00
 2.423619501884E-02 -6.645245305771E-02 0.000000000000E+00 4.327420051962E-02 5.930818439482E-02 0.000000000000E+00 7.947627231687E-02 -3.153126633449E-02 0.000000000000E+00 -1.228439528104E+03 -4.364103902320E+02 0.000000000000E+00 -1.266221480840E+03 4.617316752406E+02 0.000000000000E+00 -6.268746335760E-02 1.296164463525E-01 0.000000000000E+00 3.948306246531E+01 -9.340743096557E-02 0.000000000000E+00 -2.025818668195E+01 -3.443666105498E+01 0.000000000000E+00 5.144312293853E+01 -8.875915747441E-02 0.000000000000E+00 2.852621902089E+03
 -1.686428679880E-02 4.895008419199E-02 0.000000000000E+00 -4.372969867251E-02 -3.269621636816E-02 0.000000000000E+00 -2.742761510302E-02 5.973575620660E-02 0.000000000000E+00 -4.349446881819E+02 -7.332945747844E+02 0.000000000000E+00 4.516215055951E+02 -7.832165571242E+02 0.000000000000E+00 5.196507020278E-02 -8.682946158207E-02 0.000000000000E+00 -6.815158549433E+01 8.575809905414E-02 0.000000000000E+00 3.487944866897E+01 5.944622775850E+01 0.000000000000E+00 8.491162025242E+01 -2.834125989849E-01 0.000000000000E+00 -3.881596310001E+01 2.884588053124E+03
 0.000000000000E+00 0.000000000000E+00 0.000000000000E+00 0.000000000000E+00 0.000000000000E+00 0.000000000000E+00 0.000000000000E+00 0.000000000000E+00 0.000000000000E+00 0.000000000000E+00 0.000000000000E+00 0.000000000000E+00 0.000000000000E+00 0.000000000000E+00 0.000000000000E+00 0.000000000000E+00 0.000000000000E+00 0.000000000000E+00 0.000000000000E+00 0.000000000000E+00 0.000000000000E+00 0.000000000000E+00 0.000000000000E+00 0.000000000000E+00 0.000000000000E+00 0.000000000000E+00 0.000000000000E+00 0.000000000000E+00 0.000000000000E+00 0.000000000000E+00
 -7.413056855274E-02 -3.943219473267E-01 0.000000000000E+00 3.022732132527E-01 1.291494243213E-01 0.000000000000E+00 5.187987047047E-02 -1.013448125313E-01 0.000000000000E+00 1.385958630903E-01 5.676205395014E-02 0.000000000000E+00 1.082296625495E-01 1.207887416490E-02 0.000000000000E+00 -1.646601922100E-01 8.763307561480E-01 0.000000000000E+00 -2.269878831572E-01 2.019621967180E-01 0.000000000000E+00 -1.004423385193E-01 5.103046355766E-03 0.000000000000E+00 -1.477252245425E-01 2.199209631118E-02 0.000000000000E+00 -1.467172431517E-01 4.662386703000E-02 0.000000000000E+00 2.803206918655E+03
 9.415248621387E-01 -9.030381989538E-01 0.000000000000E+00 4.852430707615E-01 1.293272064830E+00 0.000000000000E+00 9.272374820015E-01 -6.761401840509E-01 0.000000000000E+00 7.532417053178E-01 3.476230245151E-01 0.000000000000E+00 9.954315862418E-01 -6.996800791992E-01 0.000000000000E+00 -9.162423749798E-01 1.470254185726E+00 0.000000000000E+00 -8.276336706695E-01 2.525294701699E-01 0.000000000000E+00 -6.556554167948E-01 -5.671667241402E-01 0.000000000000E+00 -8.620589962342E-01 4.944151923555E-01 0.000000000000E+00 -9.915843583512E-01 5.582374181174E-01 0.000000000000E+00 -5.324549405366E+00 2.791394202092E+03
 0.000000000000E+00 0.000000000000E+00 0.000000000000E+00 0.000000000000E+00 0.000000000000E+00 0.000000000000E+00 0.000000000000E+00 0.000000000000E+00 0.000000000000E+00 0.000000000000E+00 0.000000000000E+00 0.000000000000E+00 0.000000000000E+00 0.000000000000E+00 0.000000000000E+00 0.000000000000E+00 0.000000000000E+00 0.000000000000E+00 0.000000000000E+00 0.000000000000E+00 0.000000000000E+00 0.000000000000E+00 0.000000000000E+00 0.000000000000E+00 0.000000000000E+00 0.000000000000E+00 0.000000000000E+00 0.000000000000E+00 0.000000000000E+00 0.000000000000E+00 0.000000000000E+00 0.000000000000E+00 0.000000000000E+00
 -3.335842080740E-01 1.024773830386E-01 0.000000000000E+00 1.274693297568E-01 -3.126224679717E-01 0.000000000000E+00 -2.574009740269E-01 1.478304396872E-01 0.000000000000E+00 -1.266846867196E-01 -6.910064272858E-02 0.000000000000E+00 -2.524759378942E-01 2.449917619607E-01 0.000000000000E+00 2.239802760106E-01 -3.124389277800E-02 0.000000000000E+00 1.246152374164E-01 2.956117851107E-02 0.000000000000E+00 1.127827663790E-01 1.993069550627E-01 0.000000000000E+00 1.747249558518E-01 -1.480323288752E-01 0.000000000000E+00 2.177328234746E-01 -1.481081159879E-01 0.000000000000E+00 4.600986570196E+01 7.621823037921E+01 0.000000000000E+00 2.798315267384E+03
 8.758755413040E-02 -8.972847290419E-01 0.000000000000E+00 2.826234761926E-01 7.316888474135E-01 0.000000000000E+00 3.335972783325E-01 -3.136430808274E-01 0.000000000000E+00 2.657518815158E-01 1.502014476746E-01 0.000000000000E+00 3.940347530383E-01 -2.411913420926E-01 0.000000000000E+00 -5.541073218633E-01 1.727195906571E+00 0.000000000000E+00 -4.653454493946E-01 3.991802567955E-01 0.000000000000E+00 -1.713263136885E-01 -1.926843072590E-01 0.000000000000E+00 -4.281519683673E-01 2.149723759906E-01 0.000000000000E+00 -3.091447105665E-01 2.228177266093E-01 0.000000000000E+00 1.697401876364E+00 -1.004737184356E+01 0.000000000000E+00 2.820793678957E+02 2.853608163014E+03
 0.000000000000E+00 0.000000000000E+00 0.000000000000E+00 0.000000000000E+00 0.000000000000E+00 0.000000000000E+00 0.000000000000E+00 0.000000000000E+00 0.000000000000E+00 0.000000000000E+00 0.000000000000E+00 0.000000000000E+00 0.000000000000E+00 0.000000000000E+00 0.000000000000E+00 0.000000000000E+00 0.000000000000E+00 0.000000000000E+00 0.000000000000E+00 0.000000000000E+00 0.000000000000E+00 0.000000000000E+00 0.000000000000E+00 0.000000000000E+00 0.000000000000E+00 0.000000000000E+00 0.000000000000E+00 0.000000000000E+00 0.000000000000E+00 0.000000000000E+00 0.000000000000E+00 0.000000000000E+00 0.000000000000E+00 0.000000000000E+00 0.000000000000E+00 0.000000000000E+00
 -2.021066804803E+01 -3.423771855108E+01 0.000000000000E+00 3.860903346462E+01 -3.024891604096E-01 0.000000000000E+00 -7.846577034026E-02 4.938882311352E-02 0.000000000000E+00 -6.095071199036E-02 -3.380727267968E-02 0.000000000000E+00 -7.590799081629E-02 5.861606823553E-02 0.000000000000E+00 -1.252007863445E+03 -4.374995611992E+02 0.000000000000E+00 9.181170868092E-02 -4.081301725537E-02 0.000000000000E+00 4.963755098893E-02 4.456511076388E-02 0.000000000000E+00 8.210821291708E-02 -4.032958043520E-02 0.000000000000E+00 6.601081744475E-02 -4.474741387963E-02 0.000000000000E+00 -1.946679223263E+01 3.571266320545E+01 0.000000000000E+00 -4.790060226518E-01 5.646082563135E-01 0.000000000000E+00 2.789453586702E+03
 3.571071171058E+01 6.032317568731E+01 0.000000000000E+00 -6.803381943531E+01 6.549441128426E-01 0.000000000000E+00 2.694520807861E-01 -1.611751684888E-01 0.000000000000E+00 2.508205168573E-01 9.752284182992E-02 0.000000000000E+00 3.155417789169E-01 -2.012715293603E-01 0.000000000000E+00 -4.409551071413E+02 -7.267122889282E+02 0.000000000000E+00 -2.721377753236E-01 5.159520510844E-02 0.000000000000E+00 -2.089163340968E-01 -1.535130302226E-01 0.000000000000E+00 -2.552672732925E-01 1.272497807460E-01 0.000000000000E+00 -3.025340623877E-01 1.637448994612E-01 0.000000000000E+00 -3.413994414234E+01 5.299393930111E+01 0.000000000000E+00 9.661203688219E-01 -3.378811627014E+00 0.000000000000E+00 1.940230307594E+01 2.795602803241E+03
 0.000000000000E+00 0.000000000000E+00 0.000000000000E+00 0.000000000000E+00 0.000000000000E+00 0.000000000000E+00 0.000000000000E+00 0.000000000000E+00 0.000000000000E+00 0.000000000000E+00 0.000000000000E+00 0.000000000000E+00 0.000000000000E+00 0.000000000000E+00 0.000000000000E+00 0.000000000000E+00 0.000000000000E+00 0.000000000000E+00 0.000000000000E+00 0.000000000000E+00 0.000000000000E+00 0.000000000000E+00 0.000000000000E+00 0.000000000000E+00 0.000000000000E+00 0.000000000000E+00 0.000000000000E+00 0.000000000000E+00 0.000000000000E+00 0.000000000000E+00 0.000000000000E+00 0.000000000000E+00 0.000000000000E+00 0.000000000000E+00 0.000000000000E+00 0.000000000000E+00 0.000000000000E+00 0.000000000000E+00 0.000000000000E+00
 6.686160577219E-02 -2.697519625863E-01 0.000000000000E+00 -1.901878785012E+01 -3.160582922831E+01 0.000000000000E+00 1.314077799884E-01 -1.135215895247E-01 0.000000000000E+00 9.466921921686E-02 5.018435002504E-02 0.000000000000E+00 1.409889768777E-01 -9.564994286896E-02 0.000000000000E+00 -1.484851988331E-01 4.727366656143E-01 0.000000000000E+00 -1.521599526846E-01 1.254191000798E-01 0.000000000000E+00 -5.124354830738E-02 -7.070703217774E-02 0.000000000000E+00 -1.547129268165E-01 8.705702525332E-02 0.000000000000E+00 -9.790651492608E-02 8.662264753116E-02 0.000000000000E+00 3.978250237542E+01 -7.187207231659E+01 0.000000000000E+00 -2.177746491677E+01 3.903876057639E+01 0.000000000000E+00 4.004775847435E+01 6.621704503454E+01 0.000000000000E+00 2.776935037281E+03
 -1.035753422439E-01 6.637714439659E-02 0.000000000000E+00 3.381555694944E+01 5.627261934554E+01 0.000000000000E+00 -1.043673237905E-01 5.243526879486E-02 0.000000000000E+00 -7.383514778328E-02 -3.854204216005E-02 0.000000000000E+00 -1.104570082603E-01 7.748672894771E-02 0.000000000000E+00 2.794129218908E-02 -1.033543277749E-01 0.000000000000E+00 7.390461369114E-02 -1.024816883427E-02 0.000000000000E+00 7.273381128067E-02 7.384194771159E-02 0.000000000000E+00 8.735483538278E-02 -4.846843085142E-02 0.000000000000E+00 9.523114042752E-02 -5.473811662680E-02 0.000000000000E+00 2.683551527339E-01 1.457110729519E+00 0.000000000000E+00 -4.273632380057E+01 7.608036962226E+01 0.000000000000E+00 -1.809358971455E-01 4.544948506139E-01 0.000000000000E+00 -2.969477941875E+01 2.756380679509E+03
 0.000000000000E+00 0.000000000000E+00 0.000000000000E+00 0.000000000000E+00 0.000000000000E+00 0.000000000000E+00 0.000000000000E+00 0.000000000000E+00 0.000000000000E+00 0.000000000000E+00 0.000000000000E+00 0.000000000000E+00 0.000000000000E+00 0.000000000000E+00 0.000000000000E+00 0.000000000000E+00 0.000000000000E+00 0.000000000000E+00 0.000000000000E+00 0.000000000000E+00 0.000000000000E+00 0.000000000000E+00 0.000000000000E+00 0.000000000000E+00 0.000000000000E+00 0.000000000000E+00 0.000000000000E+00 0.000000000000E+00 0.000000000000E+00 0.000000000000E+00 0.000000000000E+00 0.000000000000E+00 0.000000000000E+00 0.000000000000E+00 0.000000000000E+00 0.000000000000E+00 0.000000000000E+00 0.000000000000E+00 0.000000000000E+00 0.000000000000E+00 0.000000000000E+00 0.000000000000E+00
 -1.661165499085E+00 4.614229326960E+00 0.000000000000E+00 -1.573584384358E+00 -5.374430032321E+00 0.000000000000E+00 -2.779161857469E+00 1.789375407246E+00 0.000000000000E+00 -2.336074969105E+00 -1.303800289006E+00 0.000000000000E+00 -3.346044706873E+00 2.089094373883E+00 0.000000000000E+00 4.584037467574E+00 -8.246790648886E+00 0.000000000000E+00 3.258410275516E+00 -1.551013309586E+00 0.000000000000E+00 1.854482483754E+00 1.829402936681E+00 0.000000000000E+00 2.997490937475E+00 -1.435871013202E+00 0.000000000000E+00 2.850013362995E+00 -1.662105496529E+00 0.000000000000E+00 -1.221533839008E+03 5.008181193602E+02 0.000000000000E+00 -5.186355315196E+02 2.102027921198E+01 0.000000000000E+00 -4.468852683159E+00 2.171325851524E+01 0.000000000000E+00 1.272106248836E+01 -7.960192664580E+00 0.000000000000E+00 2.634183345819E+03
 -2.584338804566E+00 3.560881609964E+00 0.000000000000E+00 -1.724369183260E+00 -4.231845216208E+00 0.000000000000E+00 -2.794449855637E+00 2.106542730608E+00 0.000000000000E+00 -2.354565834435E+00 -1.087704596055E+00 0.000000000000E+00 -3.065361534723E+00 2.107466365656E+00 0.000000000000E+00 3.349612676123E+00 -6.280096722852E+00 0.000000000000E+00 2.866743669500E+00 -1.218877422786E+00 0.000000000000E+00 1.937366301783E+00 1.653763389938E+00 0.000000000000E+00 2.883790994099E+00 -1.482550458821E+00 0.000000000000E+00 3.022492997611E+00 -1.748446721330E+00 0.000000000000E+00 4.409822097464E+02 -6.858954279287E+02 0.000000000000E+00 -3.749601966115E+01 -1.508940051613E+03 0.000000000000E+00 -5.826371912724E+00 1.595968514981E+01 0.000000000000E+00 8.451019492782E+00 -5.802967529791E+00 0.000000000000E+00 -1.744102425999E+02 2.716283895472E+03
 0.000000000000E+00 0.000000000000E+00 0.000000000000E+00 0.000000000000E+00 0.000000000000E+00 0.000000000000E+00 0.000000000000E+00 0.000000000000E+00 0.000000000000E+00 0.000000000000E+00 0.000000000000E+00 0.000000000000E+00 0.000000000000E+00 0.000000000000E+00 0.000000000000E+00 0.000000000000E+00 0.000000000000E+00 0.000000000000E+00 0.000000000000E+00 0.000000000000E+00 0.000000000000E+00 0.000000000000E+00 0.000000000000E+00 0.000000000000E+00 0.000000000000E+00 0.000000000000E+00 0.000000000000E+00 0.000000000000E+00 0.000000000000E+00 0.000000000000E+00 0.000000000000E+00 0.000000000000E+00 0.000000000000E+00 0.000000000000E+00 0.000000000000E+00 0.000000000000E+00 0.000000000000E+00 0.000000000000E+00 0.000000000000E+00 0.000000000000E+00 0.000000000000E+00 0.000000000000E+00 0.000000000000E+00 0.000000000000E+00 0.000000000000E+00
 -7.713029933277E-03 3.671276120455E-02 0.000000000000E+00 -3.017165620498E-02 -1.419525234867E-01 0.000000000000E+00 -1.820105574556E-02 1.528804540438E-02 0.000000000000E+00 -1.151719249298E-03 -6.399258429715E-03 0.000000000000E+00 -1.231201023297E-02 2.774885709092E-02 0.000000000000E+00 -1.968318242980E+01 3.478204215230E+01 0.000000000000E+00 1.852182223433E-02 -1.752015357625E-02 0.000000000000E+00 -1.216423258699E-02 1.703235525067E-02 0.000000000000E+00 2.777281531828E-02 -1.812937083532E-02 0.000000000000E+00 -9.160546206023E-03 -1.831652042387E-02 0.000000000000E+00 -1.215824226431E+03 -4.255185614189E+02 0.000000000000E+00 1.973641110508E-01 7.225653893996E-01 0.000000000000E+00 -1.181750683402E+03 4.246719502864E+02 0.000000000000E+00 -4.714880523424E+02 -6.338613564642E+00 0.000000000000E+00 -2.106550363571E+01 -3.729468115911E+01 0.000000000000E+00 2.755389994545E+03
 -5.814475704428E-01 6.254049791480E-01 0.000000000000E+00 -4.253918796988E-01 -8.041995787654E-01 0.000000000000E+00 -6.314896405820E-01 3.918193085397E-01 0.000000000000E+00 -5.493972282594E-01 -2.285210442798E-01 0.000000000000E+00 -6.964890756337E-01 4.593657699567E-01 0.000000000000E+00 -3.244648440823E+01 5.774013424761E+01 0.000000000000E+00 6.264647250646E-01 -1.627630246064E-01 0.000000000000E+00 4.621478428987E-01 3.364286071474E-01 0.000000000000E+00 5.893639584603E-01 -3.026498666725E-01 0.000000000000E+00 6.604533384865E-01 -3.765611855369E-01 0.000000000000E+00 -4.278490067212E+02 -7.044504181749E+02 0.000000000000E+00 -2.297952909522E+00 6.858832882496E+00 0.000000000000E+00 4.250823237972E+02 -7.129239460351E+02 0.000000000000E+00 3.668130313569E+00 -1.494986217439E+03 0.000000000000E+00 -1.338126274965E+01 2.278110182162E+01 0.000000000000E+00 1.546354100411E+00 2.799463493953E+03
 0.000000000000E+00 0.000000000000E+00 0.000000000000E+00 0.000000000000E+00 0.000000000000E+00 0.000000000000E+00 0.000000000000E+00 0.000000000000E+00 0.000000000000E+00 0.000000000000E+00 0.000000000000E+00 0.000000000000E+00 0.000000000000E+00 0.000000000000E+00 0.000000000000E+00 0.000000000000E+00 0.000000000000E+00 0.000000000000E+00 0.000000000000E+00 0.000000000000E+00 0.000000000000E+00 0.000000000000E+00 0.000000000000E+00 0.000000000000E+00 0.000000000000E+00 0.000000000000E+00 0.000000000000E+00 0.000000000000E+00 0.000000000000E+00 0.000000000000E+00 0.000000000000E+00 0.000000000000E+00 0.000000000000E+00 0.000000000000E+00 0.000000000000E+00 0.000000000000E+00 0.000000000000E+00 0.000000000000E+00 0.000000000000E+00 0.000000000000E+00 0.000000000000E+00 0.000000000000E+00 0.000000000000E+00 0.000000000000E+00 0.000000000000E+00 0.000000000000E+00 0.000000000000E+00 0.000000000000E+00
 -2.806054980851E-02 4.123994705681E-01 0.000000000000E+00 -2.175406014564E-01 -3.390395883233E-01 0.000000000000E+00 -1.453327735544E-01 1.307599096261E-01 0.000000000000E+00 -1.568104307995E-01 -8.445446034185E-02 0.000000000000E+00 -1.910070476237E-01 9.257266912830E-02 0.000000000000E+00 3.211599196285E-01 -8.312134613361E-01 0.000000000000E+00 2.518388515818E-01 -1.854708672738E-01 0.000000000000E+00 1.077689692299E-01 7.941117201507E-02 0.000000000000E+00 2.141487086650E-01 -8.099625443737E-02 0.000000000000E+00 1.729132466463E-01 -9.869265732507E-02 0.000000000000E+00 -8.476153448293E-01 4.252296885228E+00 0.000000000000E+00 -1.518167295221E+03 -5.316548267533E+02 0.000000000000E+00 -2.707566851243E-01 1.569796533802E+00 0.000000000000E+00 -1.272121898962E+03 4.297071229966E+02 0.000000000000E+00 3.512220341065E+01 -1.261779296666E+01 0.000000000000E+00 3.866404243600E+01 -3.335039424733E+00 0.000000000000E+00 3.080265979141E+03
 3.224116880149E-01 -3.402766972913E-01 0.000000000000E+00 2.075141037132E-01 4.801063318480E-01 0.000000000000E+00 3.295875671846E-01 -2.029033041158E-01 0.000000000000E+00 3.029440191340E-01 1.374622220963E-01 0.000000000000E+00 3.806843791705E-01 -2.625769593922E-01 0.000000000000E+00 -5.024467872810E-01 5.811997901377E-01 0.000000000000E+00 -3.570675974372E-01 7.799545354533E-02 0.000000000000E+00 -2.656976428587E-01 -2.059830234005E-01 0.000000000000E+00 -3.419640120154E-01 1.485679055186E-01 0.000000000000E+00 -3.867024483848E-01 2.058794509859E-01 0.000000000000E+00 -2.085036211932E+00 -7.692582547631E+00 0.000000000000E+00 -5.418091142385E+02 -8.745913411824E+02 0.000000000000E+00 5.841641701530E-01 -1.989310581633E+00 0.000000000000E+00 4.145322903318E+02 -7.222240251151E+02 0.000000000000E+00 -6.287494175135E+01 2.636825641389E+01 0.000000000000E+00 7.153535379895E+01 4.742863808749E+00 0.000000000000E+00 9.903854483594E+01 2.538745583085E+03
 0.000000000000E+00 0.000000000000E+00 0.000000000000E+00 0.000000000000E+00 0.000000000000E+00 0.000000000000E+00 0.000000000000E+00 0.000000000000E+00 0.000000000000E+00 0.000000000000E+00 0.000000000000E+00 0.000000000000E+00 0.000000000000E+00 0.000000000000E+00 0.000000000000E+00 0.000000000000E+00 0.000000000000E+00 0.000000000000E+00 0.000000000000E+00 0.000000000000E+00 0.000000000000E+00 0.000000000000E+00 0.000000000000E+00 0.000000000000E+00 0.000000000000E+00 0.000000000000E+00 0.000000000000E+00 0.000000000000E+00 0.000000000000E+00 0.000000000000E+00 0.000000000000E+00 0.000000000000E+00 0.000000000000E+00 0.000000000000E+00 0.000000000000E+00 0.000000000000E+00 0.000000000000E+00 0.000000000000E+00 0.000000000000E+00 0.000000000000E+00 0.000000000000E+00 0.000000000000E+00 0.000000000000E+00 0.000000000000E+00 0.000000000000E+00 0.000000000000E+00 0.000000000000E+00 0.000000000000E+00 0.000000000000E+00 0.000000000000E+00 0.000000000000E+00
 2.890932155487E-02 1.658960544111E-02 0.000000000000E+00 -1.232903292997E+03 4.472108300372E+02 0.000000000000E+00 4.161365891242E-02 -8.029252929909E-03 0.000000000000E+00 4.074136376837E-02 1.543156124499E-02 0.000000000000E+00 2.629748644841E-02 -3.436181025728E-02 0.000000000000E+00 4.018876922006E+01 -2.146281128319E-01 0.000000000000E+00 -2.029343885756E-02 -3.293233217343E-02 0.000000000000E+00 -2.007154393061E+01 3.568317583214E+01 0.000000000000E+00 -1.844140880072E-02 1.617733163450E-02 0.000000000000E+00 -3.221185574657E-02 2.954385013354E-02 0.000000000000E+00 -4.810148750540E-01 -5.020105815716E-01 0.000000000000E+00 -2.878326908612E-01 -5.202226420136E-01 0.000000000000E+00 3.370841836114E-02 -6.220790163724E-02 0.000000000000E+00 -1.149424993913E+03 -3.958335077966E+02 0.000000000000E+00 1.011059087080E+00 1.881990734303E+00 0.000000000000E+00 3.711119015080E+01 2.679062456272E-01 0.000000000000E+00 -1.749369524553E+01 -3.280590777136E+01 0.000000000000E+00 2.744097557969E+03
 3.970714948029E-02 -6.903353120111E-02 0.000000000000E+00 4.554462625174E+02 -7.432807391994E+02 0.000000000000E+00 5.568900437444E-02 -2.625057871068E-02 0.000000000000E+00 8.327413320284E-02 1.456173322966E-02 0.000000000000E+00 7.218576167353E-02 -4.120777938630E-02 0.000000000000E+00 6.718197586396E+01 -9.447540934665E-02 0.000000000000E+00 -9.552314798272E-02 1.504662591568E-02 0.000000000000E+00 -3.355512947231E+01 5.971790534855E+01 0.000000000000E+00 -6.572944393374E-02 1.886132729077E-02 0.000000000000E+00 -8.401842956268E-02 4.595008917645E-02 0.000000000000E+00 -1.412568149136E-01 -1.656324782696E+00 0.000000000000E+00 4.697150289938E-01 -4.363970890059E-01 0.000000000000E+00 1.176965471660E-01 -3.768584700666E-01 0.000000000000E+00 -3.932833920731E+02 -6.750357033415E+02 0.000000000000E+00 3.561619980466E+00 4.664211192679E+00 0.000000000000E+00 -6.548593890978E+01 8.209448696768E-01 0.000000000000E+00 3.160508471429E+01 5.739383703119E+01 0.000000000000E+00 -7.767310861615E+00 2.805282364886E+03
 0.000000000000E+00 0.000000000000E+00 0.000000000000E+00 0.000000000000E+00 0.000000000000E+00 0.000000000000E+00 0.000000000000E+00 0.000000000000E+00 0.000000000000E+00 0.000000000000E+00 0.000000000000E+00 0.000000000000E+00 0.000000000000E+00 0.000000000000E+00 0.000000000000E+00 0.000000000000E+00 0.000000000000E+00 0.000000000000E+00 0.000000000000E+00 0.000000000000E+00 0.000000000000E+00 0.000000000000E+00 0.000000000000E+00 0.000000000000E+00 0.000000000000E+00 0.000000000000E+00 0.000000000000E+00 0.000000000000E+00 0.000000000000E+00 0.000000000000E+00 0.000000000000E+00 0.000000000000E+00 0.000000000000E+00 0.000000000000E+00 0.000000000000E+00 0.000000000000E+00 0.000000000000E+00 0.000000000000E+00 0.000000000000E+00 0.000000000000E+00 0.000000000000E+00 0.000000000000E+00 0.000000000000E+00 0.000000000000E+00 0.000000000000E+00 0.000000000000E+00 0.000000000000E+00 0.000000000000E+00 0.000000000000E+00 0.000000000000E+00 0.000000000000E+00 0.000000000000E+00 0.000000000000E+00 0.000000000000E+00