#BIOSYM hessian 1
@Type: Hessian Update
@Units
 distance: 	A
 energy: 	Kcal/Mol
#header
@natom 67

#label
C1      C2      C3      C4      C5      C6      C7      C8      C9      C10     C11     C12     C13     C14     C15     C16     C17     C18     C19     C20     C21     C22     C23     H24     C25     C26     C27     C28     C29     C30     C31     C32     C33     C34     C35     C36     C37     C38     C39     C40     C41     C42     C43     C44     C45     C46     C47     C48     C49     H50     H51     H52     H53     H54     H55     H56     H57     H58     H59     H60     H61     H62     H63     H64     H65     H66     O67

#element
C  C  C  C  C  C  C  C  C  C  C  C  C  C  C  C  C  C  C  C  C  C  C  H  C  C  C  C  C  C  C  C  C  C  C  C  C  C  C  C  C  C  C  C  C  C  C  C  C  H  H  H  H  H  H  H  H  H  H  H  H  H  H  H  H  H  O 

#matrix
201
 2.775751805958E+03
 -1.696169776999E+01 2.809678330955E+03
 1.546169597999E+01 -3.858447803197E+01 1.921490065793E+02
 3.921685218808E+01 6.656683865026E+01 -6.735098571814E-01 2.795971742453E+03
 -4.604154417330E-02 -3.294053599384E-01 5.953069389816E-02 -2.313124896979E+01 2.765862413256E+03
 1.633982093530E-01 3.431771831147E-01 8.799738032537E+00 2.997537625217E+01 -3.704616571057E+01 1.930499933080E+02
 -1.934069889833E+01 3.434935820218E+01 -1.906018625921E-01 3.816429230459E-02 5.703060967561E-02 -1.681975339241E-01 2.794903060576E+03
 -3.300425068171E+01 5.895543915658E+01 -1.467812288020E-01 -3.282069314225E-03 1.501144667705E-01 -6.925184222333E-02 2.619666872968E+01 2.749419308969E+03
 8.427980933093E-01 -3.362988378165E-01 9.207195033415E+00 1.174501170288E-01 4.343537562695E-01 -1.268429918977E-01 1.223182201946E+01 -1.431754667948E+00 1.858947569517E+02
 3.741310289036E+01 -6.697451626816E+01 7.674546339075E-01 -1.945061079658E+01 3.503101720301E+01 -6.291321450111E-01 3.971282142764E+01 6.872150816565E+01 -1.167276736194E+00 2.795726772033E+03
 -3.771514137017E-01 6.002901006527E-01 1.620967274885E-01 -3.277036372237E+01 5.889453299236E+01 -7.675776653209E-01 -8.061098745691E-02 -1.248074662008E-01 2.928225099526E-01 6.708554438391E-01 2.805535649393E+03
 5.917970046162E-02 -2.332060017205E-01 8.731259292994E+00 2.283279374109E-01 -8.914065479402E-02 9.266642738042E+00 -3.105438873621E-01 1.550669455377E-01 9.456300300345E+00 2.171534153229E+01 -2.747289316115E+01 1.937809827552E+02
 5.833122577588E-03 -6.532524316638E-02 3.338713398358E-02 -9.832598744992E-03 1.531094693996E-02 6.812583228258E-02 5.085474055396E+01 -8.292334201604E+01 9.589109398076E-01 -2.142857861162E+01 3.717274055107E+01 -4.273471337144E-01 2.600964985366E+03
 9.578789654762E-02 -1.257063612101E-02 -1.066499602906E-01 5.670070107797E-03 4.541179979845E-02 -6.427455461682E-02 -2.829294015756E-01 1.961358812436E-01 -1.712011601628E-01 -3.520751619785E+01 6.102782377691E+01 -5.122571096166E-01 -1.721777548724E+02 3.050135416718E+03
 -9.207093536746E-02 6.215657465901E-02 2.265795477083E-01 -1.557807218311E-01 1.114992004740E-01 2.382222323954E-01 2.867033754243E-01 -6.118319857609E-01 1.276323296911E+01 -1.050696085019E-01 -2.997529831742E-01 1.088774905532E+01 2.461748818751E+01 -2.193059123847E+01 1.503995482058E+02
 -1.213993850794E+03 4.429670725309E+02 -1.480130377820E+01 -4.647059098353E+02 -6.959131119909E+00 -3.679689540584E+00 -9.930685478219E-02 -2.767551057227E-01 -5.443212388599E-01 -1.606563498866E-02 8.221056266629E-02 -1.434238281205E-02 1.749728941506E-02 -1.186883608528E-01 3.693273241396E-02 2.814482932356E+03
 4.371436561775E+02 -7.322070584253E+02 1.198335048165E+01 -4.863234272380E+00 -1.431417740860E+03 1.982339970905E+01 -1.412776772422E-01 -2.231397449445E-01 -8.071195964882E-03 1.456865290272E-02 -1.262329183125E-02 6.078969166384E-02 -5.443132798174E-03 -1.002073909545E-01 -1.794736002754E-03 1.352103128701E+00 2.772842149642E+03
 -1.497392982691E+01 1.293294574895E+01 -8.236184118850E+01 -4.227263956574E+00 1.902600048172E+01 -8.130260650333E+01 -2.417835909551E-01 -8.042800670444E-02 4.963909945952E+00 2.386803992979E-01 -1.220537913274E-01 -8.875514580632E+00 -1.329581551728E-02 -2.899140147413E-02 4.418320452664E-01 2.475009151568E+01 -3.522669733082E+01 1.928486314630E+02
 -1.199923891651E+03 -4.139143015202E+02 -5.751140100161E-01 9.991395125278E-02 -2.908659160419E-01 1.829471953909E-01 -1.237746130256E+03 4.408722984824E+02 -6.883969442806E+00 -4.691850462382E+02 -3.778222808486E+00 -1.627730881579E+00 -5.342367241852E-02 -1.075696132333E-01 3.025095286889E-01 -1.928637315258E+01 -3.236385362670E+01 2.527152156204E-01 2.792100722215E+03
 -4.119406599529E+02 -6.959483608970E+02 5.232858319334E+00 -1.891173050660E-01 -1.225106194263E-01 -1.507086658867E-01 4.487591788663E+02 -7.307603645570E+02 4.416015831213E+00 -6.737142575571E+00 -1.461273361301E+03 1.395682079777E+01 -3.967442599549E-02 1.448744594892E-02 -2.934063760459E-01 3.421066074414E+01 5.755260561205E+01 -8.493070752246E-01 -2.393511444209E+01 2.769858204307E+03
 -2.067769161397E-01 6.522673946973E+00 -8.065130489282E+01 -1.947072597727E-01 1.588667419724E-01 -8.886020546896E+00 -7.945569698022E+00 4.497006547130E+00 -8.232723677735E+01 -2.110579141095E+00 1.339116126374E+01 -8.211288101662E+01 -7.736039654440E-02 -6.946244090776E-02 -1.024107754296E+01 -8.562827323964E-01 -1.407378137221E+00 8.657216080266E+00 8.751919095221E+00 -2.376506719950E+01 1.908952736967E+02
 3.184078327189E-01 -1.329822358959E-01 -7.342398037602E-02 -1.225411237501E+03 -4.209026144902E+02 -6.865411789308E+00 -1.969013567340E-02 1.204821550220E-01 1.241015400549E-01 -1.213497930005E+03 4.357028079944E+02 -1.469641540189E+01 1.512692267661E-02 5.406608888402E-02 -2.051896727471E-02 3.735772405799E+01 -1.798409557450E-01 3.860866538758E-01 3.966767292395E+01 -3.179042385454E-02 5.809349632175E-01 2.801940097751E+03
 1.567766335666E-02 -2.632707306645E-01 -1.666530971984E-01 -4.236827577913E+02 -7.053566788399E+02 3.370657217111E+00 -7.828776751637E-02 -1.143264313181E-01 -3.886782731977E-01 4.385107094578E+02 -7.321885601614E+02 1.099315639904E+01 4.628383039435E-03 -9.156117494749E-03 1.433306185271E-02 -6.696275099956E+01 4.185950139963E-01 -5.862545635213E-01 6.763330250769E+01 -1.096837587422E-01 8.222878275319E-01 3.581994294117E+00 2.799520281777E+03
 2.491799898805E-01 -2.388697241759E-01 -8.953071151033E+00 -6.375369397505E+00 4.198994371721E+00 -8.211986034947E+01 -5.603398654742E-02 5.672480992983E-02 4.579508534204E+00 -1.544070410333E+01 1.134064124555E+01 -8.299291478267E+01 -1.816420034903E-02 7.983147937332E-02 4.602231843828E+00 1.145358597569E+00 1.049233796764E-01 8.599404924543E+00 -2.982565151319E-01 3.184487598837E-01 8.974881449641E+00 2.474648569230E+01 -3.294242226543E+01 1.944313107630E+02
 1.172969239393E-02 -7.848817148054E-02 -6.371379762164E-02 3.160090148713E-03 -6.245323875324E-02 1.604517332720E-01 -1.229463046555E+03 -4.444257034838E+02 -6.473582095253E+00 6.433918122140E-02 -3.510484659019E-02 1.980396629910E-01 -5.671917437457E+02 -3.083854164289E+00 -4.885800901588E+00 7.130240802718E-02 1.222601952093E-01 3.672031971147E-02 -2.149936562444E+01 -3.692050212900E+01 5.282332825316E-02 -2.245098354352E-02 3.830532964992E-02 -1.596674297270E-03 2.595637321537E+03
 -8.458878731716E-02 -6.195171951986E-03 5.852118283942E-02 -1.078555436596E-02 -1.449412879205E-01 1.345708762646E-01 -4.592999419053E+02 -7.698253779187E+02 -2.282449812656E-01 5.751517497795E-02 -1.107615815801E-01 -3.698478293946E-01 -1.397032379461E+01 -1.818662713668E+03 1.147413253899E+01 1.708237068493E-01 2.158707666397E-01 5.241221382284E-02 3.498214374662E+01 6.033251105609E+01 2.871125865098E-01 -7.894868806202E-02 7.011825309517E-02 -4.596175617308E-02 1.859500828735E+02 3.027862720864E+03
 -1.489184024357E-01 -2.267093368341E-01 4.438291475090E+00 2.273877980061E-01 -1.737646773237E-01 2.180384973193E-01 -5.714500985267E+00 -5.217800575972E-01 -7.678123806491E+01 4.115106235096E-01 1.836599260263E-01 -1.037155037321E+01 -5.099633477751E+00 1.174660837262E+01 -7.095003359094E+01 2.846381258857E-02 2.643810315161E-01 -5.065859011608E-01 -6.679329890347E-01 5.892004550886E-02 9.578518505298E+00 -2.509917887158E-01 1.468535272173E-02 9.926297630452E-02 2.169369682102E+01 -1.742743781294E+01 1.521093408619E+02
 -6.802396313682E-02 8.820091706520E-02 1.897346011269E-02 3.554208453881E-02 -4.248832480293E-02 -2.019434229628E-01 4.668682218754E-02 5.597964038153E-02 1.830133830182E-01 -1.230154787237E+03 -4.350220460646E+02 -5.186585668986E+00 -1.260288913386E+03 4.612365011235E+02 -1.397603151857E+01 -2.462395369788E-02 1.810544026505E-02 -4.148172863229E-02 3.953311939375E+01 -2.191033729905E-01 2.601996748560E-01 -2.020155172712E+01 -3.413066057759E+01 8.043583767504E-02 5.150962217582E+01 -3.566561562834E-01 6.083879491030E-01 2.848786161202E+03
 -4.693953362068E-02 -9.438996936149E-02 1.140711992239E-01 -1.152816647793E-02 -3.225891887789E-02 -2.845061915234E-02 2.017999087338E-02 1.516734083530E-01 7.359134620340E-02 -4.336488198079E+02 -7.305760174673E+02 3.164749103130E+00 4.512547100118E+02 -7.816548597986E+02 1.003243039103E+01 8.514155620604E-02 6.819965483884E-02 -1.081825532174E-02 -6.832797704860E+01 3.230136132400E-01 -7.154770490356E-01 3.500215594920E+01 5.924084451869E+01 -3.483414389441E-01 8.448407052889E+01 -5.593600378529E-01 5.680244328090E-01 -3.621769400898E+01 2.883618062350E+03
 -4.848680586711E-03 5.676998730466E-02 4.219676371373E+00 1.232308245815E-01 -1.272498889260E-01 4.078929712010E+00 3.708799284563E-01 -1.072368204799E-01 -1.076678136360E+01 -4.450902457258E+00 3.526311211567E+00 -8.508999881780E+01 -1.431264130603E+01 9.958780644222E+00 -7.765049311659E+01 -1.008881452259E-02 2.418720287366E-02 -3.880171709623E-01 6.785875621925E-01 1.165139808752E-01 9.431742554612E+00 -8.281977719634E-01 -8.719076259642E-01 9.133554011069E+00 -1.865008432830E-01 2.355393480172E-01 1.126757314361E+01 2.194930754760E+01 -2.813516501197E+01 1.859930629356E+02
 -8.429978496496E-02 -1.742083472628E-01 -1.898490173154E-02 4.740249510881E-02 -3.056745298813E-01 -2.073484316459E-01 1.957504303114E-01 4.189550899200E-01 2.763252745950E-02 1.418271823007E-01 -1.062699118514E-01 -5.604354054802E-02 3.143220596973E-02 2.039411148749E-01 -1.581293349003E-01 1.807802221103E-01 2.368294979775E-01 2.307928514509E-02 -1.055186640637E-01 5.533343089734E-02 6.117333374981E-02 -1.242369406706E-01 1.734233573473E-01 3.218739451371E-02 -1.851676210124E-01 -4.032761670276E-01 5.312756976186E-02 -2.886420285537E-02 -7.108657578206E-02 1.747369403494E-01 2.804906349603E+03
 -1.018489200375E-02 3.853716574584E-02 4.511265689702E-02 1.105317735340E-01 6.336259668613E-02 -1.282629224093E-01 -7.138307538112E-02 -1.182146939092E-01 -9.327394384182E-02 -8.482778994009E-03 7.537628014146E-03 -6.947274003543E-02 -1.108662062208E-02 -5.095771515926E-02 1.451878555545E-03 -7.533719031924E-02 -1.788629999548E-01 2.087110316142E-01 2.990284612164E-02 1.338736664457E-02 1.740485056467E-03 -3.376746834283E-02 -3.038647134356E-02 -3.352004804523E-02 6.068869609233E-02 1.396875926382E-01 -1.003721702533E-01 1.507440023474E-02 5.330648174563E-02 -1.668750518519E-02 2.950952295323E+00 2.796622036115E+03
 7.673989410880E-02 -1.059758297912E-01 4.126262780284E-01 -2.173413392336E-01 2.893888645090E-01 1.358098088862E+00 -2.092012759153E-01 -2.564038423466E-01 2.258873126140E-01 -5.214954374261E-02 1.157831767426E-02 3.035429427780E-01 -4.423759097520E-03 -1.655887110241E-01 6.377959058006E-01 -9.073653033798E-02 1.173742741370E-01 4.843072547586E+00 2.012349410053E-02 -6.988694028162E-02 2.548527834686E-01 1.847310458381E-01 -2.410292352405E-01 -6.378595193631E-02 1.652064739682E-01 2.780493168100E-01 -2.311819447621E-01 -7.865105885612E-02 -1.254504648023E-01 -8.642978782049E-01 2.453783454774E+01 -4.718306878051E+01 1.961164187751E+02
 -8.293526348568E-02 -4.073876977521E-02 -1.451803921505E-01 3.856623327417E-02 -2.452104044672E-01 -2.378049891735E-01 1.965225068999E-01 4.228116470884E-01 6.274284273193E-02 1.260059859996E-01 -8.964548737348E-02 -2.769168880814E-02 2.177598607253E-02 2.053148218669E-01 -1.179576849296E-01 1.669618863911E-01 2.228321189852E-01 -4.222086594997E-02 -9.940373039594E-02 2.268078465022E-02 3.321078449613E-02 -9.731336603588E-02 1.620861810996E-01 5.100451994610E-02 -1.900196062884E-01 -4.090696650601E-01 3.932914884633E-02 -1.858962712923E-02 -8.648377263913E-02 1.631280915664E-01 4.097212563821E+01 7.134197007668E+01 -1.174264173715E+00 2.789437027370E+03
 -6.495392137936E-02 -8.003519874085E-02 3.357280911095E-02 9.265592574891E-03 -8.694220253811E-02 3.510780053258E-02 9.161801602706E-02 2.950744271536E-01 9.410021086229E-02 1.001740660758E-01 -1.136290210242E-01 4.887009691519E-03 1.618753351536E-02 1.231109666857E-01 1.148679748070E-01 2.133038057248E-01 1.640912134713E-01 1.895618778856E-01 -4.302945809779E-02 6.357239254983E-02 1.051379077700E-01 -7.854879556229E-02 7.279113831412E-02 -1.514761407971E-02 -9.592344539115E-02 -2.234092086671E-01 -1.569614456907E-01 -2.732675525344E-02 -8.496645470888E-02 -1.246941069670E-01 -1.297427483036E+00 -1.693699112707E+00 3.963887722823E-01 2.822233126726E+02 2.859295078361E+03
 -1.044781937142E-02 7.394434872226E-02 1.834751332218E-01 -6.606217036282E-02 1.542229382571E-01 5.974622324208E-02 -1.298826032552E-01 -1.208971450409E-01 3.542344943236E-01 -1.804976110940E-02 6.366378019595E-02 6.561550539036E-02 -3.459898465948E-02 -3.158743068733E-02 4.883295798244E-01 -1.090216939197E-01 -1.161555915409E-01 4.799331082408E-01 4.347263941933E-02 -1.028269554731E-01 2.052658649571E-01 1.030454733136E-01 -1.168685123706E-01 -8.687255238527E-02 4.008970972555E-02 6.175515301193E-02 -4.849765514177E-01 -3.303087437302E-02 -8.169885212924E-02 -4.642609393985E-01 -3.146913996172E-02 9.917711423689E-01 1.128886340910E+01 2.592048099398E+01 -4.889982754439E+01 1.511440038938E+02
 -2.010468843156E+01 -3.447326753026E+01 4.400814026008E-01 3.872496050481E+01 -3.892554886810E-01 2.640062887141E-01 2.145333600518E-01 3.697332706992E-01 1.592831409307E-01 1.144746769305E-01 -1.469446588119E-01 -6.620904020608E-02 2.216484181563E-02 1.316499566993E-01 -1.849494423327E-01 -1.254896885865E+03 -4.345512586186E+02 -6.685151915789E+00 -7.457087439935E-02 1.546577745755E-01 2.064421132949E-01 -9.602175669699E-02 1.454894542485E-01 -1.094306493108E-02 -1.604818397886E-01 -2.848592592549E-01 3.736927143971E-02 1.774572445129E-02 -2.575075777845E-02 1.267405564866E-01 -1.956660079015E+01 3.414265615601E+01 -8.193004238186E-01 -2.981785339645E-01 -2.649431107574E-01 -1.420292980291E-01 2.786606501109E+03
 3.538090108915E+01 6.031654791976E+01 3.219799874807E-02 -6.828564389440E+01 3.955099034410E-01 -1.088383250506E+00 -4.964323419115E-02 3.758133266211E-01 2.782825745991E-01 1.808987816501E-01 -2.443280072012E-01 -1.107819556239E-01 4.275673051273E-03 1.546659472938E-01 3.911336016169E-01 -4.376929993580E+02 -7.257518339881E+02 5.264914772165E+00 -4.795535037834E-02 1.185591815089E-01 3.658411517532E-01 -1.285505001957E-01 1.164040558749E-01 -5.557960893605E-02 -4.928230916381E-02 -1.503553289093E-01 -7.075537438382E-01 -3.546130850222E-02 -6.861301850020E-02 -3.559134854066E-01 -3.278343367702E+01 5.742748770924E+01 -1.122745652126E+00 -2.055019541906E-01 -1.924096666002E-01 6.487832257953E-01 1.981566201719E+01 2.800054551924E+03
 -7.799010574748E-01 -8.720846076706E-01 9.844270049975E+00 1.160336088633E+00 3.649352865786E-01 9.035311972682E+00 -7.866654671340E-02 -1.521545734914E-02 2.903385127152E-01 -1.306811042948E-02 -7.577905693687E-02 2.052909927249E-02 -1.206606829270E-02 4.208390952647E-03 3.604361304513E-01 -6.759528272026E+00 3.955069465119E+00 -8.325128346487E+01 -6.662512952245E-02 8.161762931127E-02 4.722432681166E+00 1.357144067282E-01 3.275018840299E-02 4.450139098052E+00 1.596793361967E-03 -1.668497146295E-02 -4.128873972466E-01 -3.790450938712E-02 -2.803103062892E-02 -3.011498696007E-01 8.769471354404E-02 -4.751912347681E-01 8.874903237786E+00 -1.042603024251E-01 6.719604477941E-02 3.604497184934E-01 3.033287893988E+01 -4.110204345820E+01 1.928876620308E+02
 -5.532626669240E-02 1.432091972091E-01 5.080087241251E-02 -1.909056360984E+01 -3.178904942772E+01 1.617912588134E-01 2.011431005150E-02 1.818454125233E-01 2.856450360171E-01 7.665967962076E-02 -8.044658303070E-02 7.747738286497E-02 1.167246883298E-02 7.145349205602E-02 1.426286244662E-01 5.960566410111E-02 -7.682433908729E-03 5.356424233914E-02 -1.963296393605E-02 -1.094815229467E-02 2.642756940309E-02 -6.544482555266E-02 5.602773940137E-02 -3.479702583886E-02 -8.729087750119E-03 -8.034716444359E-02 -6.048467571491E-02 -2.501510977604E-02 -5.803549590145E-02 -1.116430320021E-01 3.929686453426E+01 -6.898097695348E+01 1.477780946263E+00 -2.301332444631E+01 4.020489117939E+01 -8.429655498128E-01 3.995177555333E+01 6.693382870229E+01 -4.885614522719E-01 2.783114727350E+03
 -1.417740507362E-01 -7.877877240628E-04 -2.044399582430E-01 3.385629484170E+01 5.629521381579E+01 -5.190958835525E-01 1.240108869052E-01 3.234648834792E-01 7.968603952686E-02 7.399407830996E-02 -8.557727797820E-02 -7.982692938559E-02 4.487986375017E-04 1.695831072250E-01 -1.343877700239E-01 3.061308665229E-01 3.971235854248E-01 -7.128791108768E-03 -8.269757224692E-03 7.878881682222E-02 1.079544172350E-01 -1.398911022181E-01 1.032180359447E-01 1.360563264093E-01 -1.269265782758E-01 -2.687023949382E-01 -7.803419965910E-02 1.007158804276E-02 -5.412041358517E-02 1.577589622680E-01 -7.579208731088E-03 -2.936703682659E-02 1.589167328474E-02 -4.252444967639E+01 7.394623577862E+01 -1.773451238401E+00 -2.438121225117E-01 -6.708642228505E-01 1.954346881789E-03 -3.269212378468E+01 2.758540252647E+03
 -4.223369209219E-02 3.574810236672E-02 8.728800797128E-02 -7.868737686089E-01 -1.001028545960E+00 8.193864522434E+00 -5.776515905801E-02 2.982559629999E-02 1.664319049791E-01 3.498640887140E-02 2.913250690979E-02 2.717834163142E-02 1.019586784923E-02 3.385147096592E-02 2.501470959838E-01 1.155628541873E-01 -1.563532978617E-01 -8.747906674433E+00 -1.488636844334E-03 -5.924625822564E-02 8.640858721679E-02 -7.136304487189E-02 6.744992942885E-02 4.263700431135E+00 1.424216873805E-02 -4.748497389613E-02 -2.594534897465E-01 -5.803078974221E-02 -6.387000051358E-02 -2.077471592636E-01 8.060695738560E-02 -3.270033059915E-01 9.652889120992E+00 1.987601519697E-01 -7.783894603727E-01 1.257733598169E+01 2.201783864295E-01 1.136117104460E+00 9.261396692522E+00 3.657033006306E+01 -4.103372552520E+01 1.866175357671E+02
 9.138779451923E-02 2.716804147030E-02 1.373129723783E-01 -4.759739444516E-02 2.093568892026E-01 2.443375242298E-01 -1.738064316615E-01 -3.698808199786E-01 2.282235826723E-02 -1.007038071313E-01 9.657408371281E-02 4.979388782064E-02 -2.118665820459E-02 -1.674121235789E-01 1.987007519526E-01 -1.949759027704E-01 -1.690219375670E-01 9.805061512713E-02 6.659984177502E-02 -5.619413325687E-02 1.330265187624E-02 1.085429577949E-01 -1.559350324652E-01 -5.516949310758E-02 1.515758943524E-01 3.170641210980E-01 -1.083409383920E-01 -4.556702826573E-03 4.344113547646E-02 -2.377405222107E-01 -1.232080023642E+03 4.321660501483E+02 -1.807593763513E+01 -5.052306455071E+02 -1.592788202938E+01 -3.425129195290E+00 1.712659369968E-01 3.379882388321E-01 7.967936953988E-02 4.404743362248E-02 4.457855231129E-02 3.541556146453E-01 2.841871574816E+03
 5.401780818309E-02 3.779257576447E-02 -8.782680825845E-02 -5.188116155332E-02 1.800068889830E-03 5.864449784928E-02 -2.986641745484E-02 -1.845150361645E-01 -9.339797835189E-02 -7.466691943144E-02 1.046446625712E-01 2.981230051464E-02 3.193345976075E-04 -7.016852937752E-02 -1.513547718190E-01 -1.703878671320E-01 -2.529311515882E-02 -3.054050666621E-01 -2.100486082945E-03 -7.632057435271E-02 -1.042435524040E-01 8.138011896019E-02 -3.087531530360E-02 4.652119302867E-02 3.787037759565E-02 8.493229696905E-02 2.357828775148E-01 4.783420107174E-03 4.592140763133E-02 1.625814668271E-01 4.336398706929E+02 -7.282245863233E+02 1.590231433766E+01 -2.592062415308E+01 -1.535226687864E+03 2.809184611804E+01 1.247284132209E-01 8.591438200945E-02 -5.829550228250E-02 6.145788269333E-02 2.307556906031E-01 -1.973236567042E-01 3.464178489316E+01 2.889903491244E+03
 -2.244398884898E-03 6.868897429668E-02 -5.973579278943E-01 3.193144510531E-01 -4.932399197212E-01 -1.522131173407E+00 3.519547191305E-01 3.822129903224E-01 -5.132083198245E-01 9.225418829827E-02 -5.901160121348E-02 -3.822564438372E-01 2.930715336640E-02 2.113165478160E-01 -1.089825732170E+00 7.817081036582E-03 6.042038439938E-02 -6.890604724458E-01 -9.867972282976E-02 1.374846887390E-01 -4.239768064524E-01 -2.807687882629E-01 3.703428186461E-01 1.482811751054E-01 -2.170798070495E-01 -3.606402377085E-01 6.438856782453E-01 1.109021989353E-01 1.998918729375E-01 1.299652997597E+00 -1.730277378983E+01 1.541063016935E+01 -8.756640266149E+01 -3.461031943525E+00 2.856686874220E+01 -7.834565765855E+01 2.553422764765E-01 -5.422508946278E-01 3.949913905032E+00 -3.391481148649E-01 8.889951878468E-02 -1.083763698815E+01 2.025639785599E+01 -5.333893395121E+01 1.885280253865E+02
 4.250815176027E-02 4.279222202458E-02 2.817504890803E-02 -7.046227388715E-02 3.083858521808E-01 4.037165651277E-02 -1.577358910186E-01 -3.088818704346E-01 -7.104819343477E-02 -1.249331556868E-01 7.185239132783E-02 -1.936509777534E-02 -4.063965399906E-02 -1.417456348777E-01 1.815943648828E-01 -1.972430622384E+01 3.481151266168E+01 -7.692633040677E-01 1.246536793839E-01 1.711257369172E-02 -4.911199355879E-02 8.239837454434E-02 -1.721311536867E-01 -9.814856600788E-02 1.289379332323E-01 3.053667872942E-01 -1.716644856508E-01 3.856562349800E-02 4.368605654200E-02 -1.725206560088E-01 -1.218508670670E+03 -4.249961439280E+02 -4.193694549599E+00 5.998312124782E-02 1.948748529551E-01 1.982215149606E-01 -1.178530855751E+03 4.238870680538E+02 -1.956876016017E+01 -4.710907857801E+02 -7.529131363327E+00 -4.535387919638E+00 -1.958248201268E+01 -3.397232467795E+01 -1.226286042626E-01 2.753488642415E+03
 1.082590284322E-01 -1.325649420661E-01 -1.648955081126E-01 -1.112658648433E-01 -2.338062492029E-01 -2.395910978177E-01 2.540740630509E-01 2.378210113782E-01 -1.450787211321E-01 3.716308639311E-02 -5.190638484515E-03 9.377554624137E-04 2.154836422251E-02 1.304320235618E-01 -3.605205768285E-01 -3.308486136894E+01 5.920679048076E+01 -1.806692995879E+00 -1.211572610466E-01 4.280599713404E-03 -2.020883817918E-01 -2.974240299421E-03 1.322606523961E-01 9.860601997461E-02 -1.867469413855E-01 -3.512873558773E-01 4.326280836699E-01 3.165201459274E-03 -2.486596474242E-02 4.034995805667E-01 -4.277588677118E+02 -7.126382916627E+02 6.112091559048E+00 -6.636169038717E-02 -1.018889283509E-01 -8.096464324426E-01 4.256798826287E+02 -7.178486280523E+02 1.534834557272E+01 4.297593539538E-01 -1.495847555925E+03 2.168087851676E+01 3.420370539562E+01 5.957381868802E+01 5.646656739921E-01 2.301188534848E+00 2.808049012366E+03
 -4.835153668406E-04 -8.618839452539E-02 4.742437276962E+00 -6.960619331229E-02 -1.313111927880E-01 -7.818704895586E+00 -9.326905150874E-02 -9.362383198515E-02 -8.351328229237E-02 -1.794647239036E-02 -5.133579870605E-02 1.973350720897E-01 3.437370156006E-02 -9.316481346529E-02 1.747745568995E-01 1.679463131607E-01 -1.360713802115E-01 9.073633502801E+00 -2.025361385923E-02 2.328794767851E-02 5.046759954988E-02 6.105079756447E-02 -8.246553195272E-02 1.413822125253E-03 1.097568271987E-01 1.554132913508E-01 1.503055786110E-01 -6.191164638211E-02 -4.803610354744E-02 -3.643182567084E-01 -5.031197657059E+00 6.076966376802E+00 -8.127458583757E+01 9.812721246215E-02 -8.413112073857E-02 -1.037032237320E+01 -1.940031008318E+01 1.489521594375E+01 -8.141474749295E+01 -5.020073732753E+00 2.211642459638E+01 -8.263934782979E+01 -7.857427533114E-01 -1.083007667736E+00 8.564005399564E+00 2.826615248648E+01 -4.288608484445E+01 1.924521599001E+02
 5.158510749299E-02 -2.262912973538E-02 -1.898981605683E-02 2.830603642532E-02 1.541342590770E-02 -1.039470384546E-01 -4.519255498968E-02 -1.926052250276E-01 -2.145992722483E-01 -5.903295619179E-02 6.605619657494E-02 -5.011004979911E-02 -2.194172281310E-03 -8.227704784331E-02 -1.730577159698E-01 -1.315556463298E-01 -9.574449866187E-02 -1.489737638012E-01 2.331343747655E-02 -8.658757333363E-03 -1.043277417289E-01 2.233065528500E-02 -3.007329144501E-02 2.713896784007E-03 5.759689941516E-02 1.443361470819E-01 1.531148248807E-01 2.113634006961E-02 8.187282234545E-02 1.603380644335E-01 8.796240408469E-02 4.961862291305E-03 -3.003650457562E-01 -1.512953046518E+03 -5.324130025011E+02 -8.133948903689E+00 2.333046216333E-01 1.050260610708E-01 -1.477203048847E-01 -1.275669298379E+03 4.325879711487E+02 -2.331118053986E+01 4.881347897211E+01 -1.219264106488E+00 1.125221126020E+00 3.886945844970E+01 8.921657992393E-02 3.252804720169E-01 3.080067864004E+03
 6.136998890271E-02 1.066752661953E-01 2.729457577252E-01 -1.280743021645E-01 4.027772850430E-01 5.913780630470E-01 -3.004812054887E-01 -5.353744649972E-01 9.071180775404E-02 -1.662335793978E-01 1.011519722420E-01 1.167548036356E-01 -3.807466197143E-02 -2.700234467579E-01 3.738636424429E-01 -1.509141521439E-01 -2.877851703582E-01 1.744810448223E-01 1.556603849344E-01 -5.044711917203E-02 4.067504451408E-02 1.643919760142E-01 -2.580849272821E-01 -8.502367025600E-02 2.624629043786E-01 5.427953604308E-01 -1.902957838906E-01 1.312456627769E-02 5.596515465807E-02 -4.406711778379E-01 1.622292404843E-01 -8.088511013454E-02 3.163442443739E-01 -5.427639849855E+02 -8.724191609000E+02 8.972003217795E+00 2.901795647861E-01 2.648863362423E-01 3.247345815333E-01 4.177169682055E+02 -7.226580529095E+02 1.700315016238E+01 -8.603597852944E+01 1.863900635488E+00 -1.964997513369E+00 7.162017512984E+01 -1.181123179286E-01 1.368410504605E+00 9.633918243639E+01 2.541882202776E+03
 -1.296046263474E-02 9.485521251053E-02 -2.186841490422E-01 1.207366694544E-01 -5.920813310802E-02 3.966014159192E+00 1.043606976659E-01 1.106774189277E-01 -1.360394705382E-01 4.193206685378E-02 1.453972642670E-02 -1.499985050723E-01 3.426428017084E-03 7.603847578475E-02 -3.738837679775E-01 -5.085001348459E-02 -1.160236713949E-01 -1.818149910501E-01 -3.672372140492E-02 1.434516198413E-03 -1.341512772852E-01 -1.185212214573E-01 1.140151170718E-01 5.397593532023E-02 -6.746585001114E-02 -1.142649670271E-01 1.865651407372E-01 3.679886842861E-02 7.138260643811E-02 4.539620224764E-01 5.254380260519E-01 -2.159057274048E-01 -1.115686688407E+01 -7.654844769042E+00 8.713562126633E+00 -7.095156931830E+01 -1.635652164442E-02 -1.487102844392E-02 4.431074372920E+00 -2.319280603475E+01 1.684173058742E+01 -7.698281727540E+01 1.829616702716E+00 4.242283156401E-02 1.193703748096E+01 -8.218932817840E-01 6.671564485708E-01 9.276997797241E+00 3.491940097833E+01 -4.430228840414E+01 1.528627108197E+02
 5.556503607280E-03 -7.101275739697E-02 3.198176514793E-02 -1.225831631506E+03 4.473360572525E+02 -1.950750570646E+01 -9.760240664933E-02 -2.225525854007E-01 -6.900259115376E-02 -2.998018953404E-02 1.817114361579E-02 -4.480636631770E-02 -1.927338636015E-02 -1.235111240283E-01 1.800577335651E-01 4.030860488026E+01 -1.985144912193E-01 7.104615292429E-01 3.645291845114E-02 -1.166532390609E-02 1.996197360154E-01 -1.985608181855E+01 3.574051664463E+01 -8.792916887913E-01 6.184663829196E-02 1.886404565523E-01 -2.389391429489E-01 6.028504639428E-03 3.213438365203E-02 -2.975804006716E-01 2.747054205587E-02 -8.471339697538E-02 4.020303787187E-01 1.626886452203E-02 1.196662771035E-01 8.113378954278E-02 -1.844341031174E-01 1.087000986111E-01 5.784329141915E-02 -1.152047151551E+03 -3.940358350139E+02 -8.971856403512E+00 2.073231824287E-02 -8.977408102084E-02 -6.205000808866E-01 3.696612131049E+01 -1.406049237496E-01 8.169867258988E-01 -1.788063785530E+01 -3.254755398115E+01 -1.715996962365E-01 2.738933230942E+03
 9.655859525325E-02 -6.118064005659E-02 7.710535445376E-02 4.553466917478E+02 -7.425085601677E+02 1.463043183952E+01 -1.361459379566E-02 -1.846094251003E-01 -2.496228226549E-01 -4.529821373479E-02 9.437493683491E-02 1.508519211652E-02 4.628380999750E-03 -7.090247529011E-02 -1.174047956611E-01 6.672367234440E+01 -7.158443347964E-01 8.797940343579E-01 1.965981706839E-03 -1.781241096168E-02 -2.160376896676E-01 -3.317446724948E+01 5.948815506690E+01 -1.395682444048E+00 3.904500853661E-02 1.040651501898E-01 2.085116405057E-01 1.103570796620E-04 7.296312489517E-02 1.768606814580E-01 2.318237307288E-01 7.764747735858E-02 -1.861757882318E-01 1.264950547000E-01 1.393306826423E-01 -4.067071969551E-02 1.301293972225E-01 4.993875249631E-01 -2.637145546439E-01 -3.913288651634E+02 -6.749208465072E+02 3.251716520950E+00 -1.562586336438E-01 -1.958158938067E-01 4.217357764686E-01 -6.580520109625E+01 9.696685666542E-02 -9.395012664671E-01 3.154561991989E+01 5.789110444234E+01 -1.266536086505E-01 -6.045292026113E+00 2.804057941217E+03
 -8.489447222733E-03 1.559186970665E-02 4.286143017420E+00 -2.016443319210E+01 1.467162201006E+01 -8.327187881400E+01 1.776474507888E-01 9.400512969487E-02 -4.589698400679E-01 -5.678951490114E-02 1.677607266182E-02 4.492192014388E+00 7.860188527215E-03 3.554846072964E-02 -7.620274242474E-01 -5.903078828454E-01 2.091702280892E-01 8.459199061850E+00 -3.916312151279E-02 1.065127291187E-01 -2.736107003217E-01 1.297822537543E-02 -2.304720077956E-01 9.623184486061E+00 -7.872212941791E-02 -6.923804464244E-02 6.709828683035E-01 8.881014961981E-02 1.346371479381E-01 7.340960053891E-01 2.248143280096E-01 -3.978906615974E-02 3.435145207932E+00 2.759991894334E-01 -1.514479799842E-02 4.862603850368E+00 4.437367348978E-01 -6.987354729163E-01 -9.453019232395E+00 -9.110772707664E+00 3.734089909280E+00 -8.176879885778E+01 -3.839211968857E-01 2.626391697680E-01 1.520980517868E+00 1.072763326484E+00 7.503365812636E-01 7.938993220322E+00 -7.612126021351E-01 -1.914354328675E+00 1.017705998837E+01 3.236646389873E+01 -3.784576871327E+01 1.884050095370E+02