#BIOSYM hessian 1
@Type: Hessian Update
@Units
 distance: 	A
 energy: 	Kcal/Mol
#header
@natom 67

#label
C1      C2      C3      C4      C5      C6      C7      C8      C9      C10     C11     C12     C13     C14     C15     C16     C17     C18     C19     C20     C21     C22     C23     H24     C25     C26     C27     C28     C29     C30     C31     C32     C33     C34     C35     C36     C37     C38     C39     C40     C41     C42     C43     C44     C45     C46     C47     C48     C49     H50     H51     H52     H53     H54     H55     H56     H57     H58     H59     H60     H61     H62     H63     H64     H65     H66     O67

#element
C  C  C  C  C  C  C  C  C  C  C  C  C  C  C  C  C  C  C  C  C  C  C  H  C  C  C  C  C  C  C  C  C  C  C  C  C  C  C  C  C  C  C  C  C  C  C  C  C  H  H  H  H  H  H  H  H  H  H  H  H  H  H  H  H  H  O 

#matrix
201
 2.555451629090E+03
 1.231352875966E+02 2.770910321141E+03
 -4.584070872674E+02 4.533450786160E+01 4.648512766138E+02
 2.986244218250E+01 3.618528557938E+01 -1.219488213843E+01 2.817347277616E+03
 -1.438092004175E+02 1.107611209164E+02 -1.051837408893E+00 -5.896821977794E+01 2.544734641777E+03
 -5.127950262990E+00 -5.509732189467E+00 2.642302479928E+01 -1.997865816341E+02 -3.750399097286E+02 4.444073212725E+02
 -4.841317120673E+01 5.764296441972E+01 4.656223240443E+00 1.283085949901E+00 -2.962165135207E+01 2.391669827153E+00 2.780444067491E+03
 2.010882295806E+00 3.278523406612E+01 -7.336471225365E+00 -1.671907063009E+00 3.492766356707E+01 -5.726310773455E+00 3.582364610227E+01 2.750518373915E+03
 7.829175987663E+00 -7.063400262181E+00 6.951290288602E+00 1.542892249515E+00 4.073483928451E+00 1.528404113334E+00 -2.934534775484E+02 -8.816121623047E+01 2.323856625894E+02
 1.466552876867E+01 -5.444178812917E+01 2.620157699234E+00 -1.946733573495E+01 1.028638427376E+01 1.196692080315E+00 3.672492156225E+01 7.313890721433E+01 -4.727397488096E+00 2.763084987161E+03
 -3.104776892254E+01 2.030489081692E+01 1.033555030696E+00 -3.579352956926E+01 3.234652204826E+01 4.403677408277E+00 -5.315761594091E+00 6.086266719765E+00 -1.295869661454E-01 -1.902267559991E+01 2.795029573004E+03
 2.788404451938E+00 2.874469789559E+00 8.065277947123E+00 1.767926995630E+00 6.853545888257E-01 6.882211833621E+00 -5.144057101210E+00 -9.971559106811E+00 7.870249300933E+00 -2.528801825728E+02 -1.073462857510E+02 2.407586556371E+02
 4.608321468857E+01 -4.200434512865E+01 6.435593083850E+00 -6.687658495019E+00 4.892012012520E+01 8.875023264636E+00 6.012832134779E+01 -9.705764212111E+01 -4.078244223878E+00 -1.136610833526E+01 4.567835075277E+01 -3.203608124553E-01 2.772923166700E+03
 1.403493301828E+01 -2.065463456557E+01 1.223908617351E+01 -7.261985065807E+00 1.812667673322E+01 1.381911881736E+01 2.329443578024E+00 -4.312087610484E+00 8.521270859882E-01 -3.267345583498E+01 6.336321063875E+01 2.309654732420E+00 -9.683631535266E+01 3.165448031971E+03
 -7.149832909114E+00 8.962029271298E+00 -7.606275085161E-01 3.287740385720E+00 -9.147076545640E+00 -1.816045790201E+00 -5.131880245646E+00 1.197146290555E+01 1.210339045754E+01 2.771929029631E+00 -7.400624167378E+00 1.045438647268E+01 -3.132486407403E+02 -8.738058338669E+01 2.041478753532E+02
 -8.027447577573E+02 2.969874144329E+02 1.123333464081E+02 -4.972744204244E+02 3.432934915094E+02 2.194084557290E+01 6.215259907482E+01 -4.860939812913E+01 -4.863278408882E+00 2.208631801359E+01 5.607413599240E+01 1.303348747257E+00 -2.350452089083E+01 -6.355478928600E+00 -1.079220122157E+00 2.033209146907E+03
 5.489081711196E+02 -9.512835148728E+02 -2.460218086778E+01 1.255617041321E+02 -1.248399502721E+03 8.076870387733E+01 3.157112957611E+01 -2.283313503474E+01 -2.783701794386E+00 1.185901430553E+01 2.376403294114E+01 -1.844523380516E+00 -7.830054672136E+00 -1.235816991302E+00 -1.990197908931E-01 -6.028630734396E+02 2.976332864126E+03
 2.352683035249E+02 -1.065776268089E+02 -3.640546623193E+02 3.528022144867E+01 2.243633461861E+02 -3.251736225644E+02 -1.969301615966E+00 -2.348081692034E+01 -3.203341179679E+00 5.578537533320E+01 2.666960831608E+01 -5.379128417504E+00 -1.541040851077E+02 -6.547932097751E+01 1.623776682161E+01 -2.464024362180E+02 -2.053828573486E+02 1.666672474495E+03
 -1.124500517168E+03 -4.537804371774E+02 1.579855434303E+02 -3.821160060810E+00 6.174126372183E+01 2.213390129084E+00 -1.217001608284E+03 4.326195091095E+02 1.219788072307E+02 -4.555905630925E+02 1.136988143691E+01 4.057794442403E+01 -2.236785101911E+01 -9.472845998567E+00 2.587036737039E+00 -1.074098064988E+02 -8.328806895096E+01 -3.564960327475E+01 2.738117836623E+03
 -4.172003675317E+02 -7.040219283533E+02 7.114414928734E+01 3.129145465422E+00 -6.394306978247E+00 8.322339190393E+00 4.493460867985E+02 -7.321011582702E+02 -2.743178588079E+01 -2.450257378980E+00 -1.457871286745E+03 4.438405683219E+01 5.167890890458E+00 5.328071814857E-01 -1.342476210922E+00 3.219651390348E+01 6.145548200158E+01 -1.504960625652E+01 -2.925413268132E+01 2.781021993113E+03
 1.441308795828E+02 6.400855533396E+01 -1.159694055424E+02 5.049421994897E+00 -1.808277064024E+01 -4.413818678620E+00 1.214768898797E+02 -2.490919197414E+01 -9.278645412403E+01 3.253150162048E+01 3.574309949685E+01 -9.510626869746E+01 7.275100237300E+00 3.393411599563E+00 -1.144976566184E+01 1.890354345416E+01 1.703811004622E+01 8.612464238051E+00 -3.109223264844E+02 -6.982109484112E+01 2.474956610628E+02
 1.619894856424E+01 -1.006178797433E+01 7.242206152651E+00 -1.218553945076E+03 -3.843515861330E+02 1.430011726024E+02 1.951381959833E+00 -1.871026816813E+00 1.165978683602E+00 -1.196123221346E+03 4.441399634906E+02 8.338223539554E+01 -5.585205989603E+00 -4.274097473768E+00 1.171522890195E+00 2.595140351536E+01 -3.874326474006E+00 -4.805869555504E+01 3.526890690648E+01 -1.044778304097E+00 -3.616647941524E-01 2.772383295182E+03
 5.397108844735E+01 -3.900557308886E+01 -5.444283792924E+00 -4.035802743192E+02 -6.365306878750E+02 9.052660879847E+01 1.072127278835E+01 -1.261898811706E+01 -7.795009769967E-01 4.525575618475E+02 -7.223138372428E+02 -6.323950624954E+00 -2.071754913614E+01 -7.627731697032E+00 4.049601570095E+00 -1.618853878884E+02 -3.919385557124E+01 -1.288202219908E+01 4.774032079900E+01 3.471910497987E+00 -2.204115047603E+00 -3.044627012439E+01 2.754930911000E+03
 -1.217231941357E+01 9.807124420302E+00 -7.256012355273E+00 1.264803770302E+02 8.967202971181E+01 -1.151071053263E+02 -2.544283602002E+00 3.138109553350E+00 2.304278750136E+00 7.210174806889E+01 -1.004988973264E+01 -8.982898018368E+01 6.688466873969E+00 1.556980369768E+00 2.285581307616E+00 2.508441282575E+01 8.604458102611E+00 1.580582995710E+01 -1.411774835228E+00 3.576178418188E+00 9.067520210083E+00 -2.426703529470E+02 -1.797069872324E+02 2.413114295334E+02
 -1.218059879779E+01 7.907310512172E+00 4.239931099186E+00 -3.208504267608E-01 -1.222397743784E+01 1.604313867259E+00 -1.232003032565E+03 -4.451129481801E+02 1.451417898337E+02 -2.352231374698E+00 -9.524602328065E-01 2.593796465828E+00 -5.820904029215E+02 3.305942923425E+01 6.048621414013E+01 -1.493504098837E+00 -2.090878113370E+00 4.241704151495E+01 -1.760694352137E+01 -3.877082796578E+01 1.131130946077E+00 1.056704300760E+00 3.656321522937E+00 -1.247112161777E+00 2.584414514935E+03
 -1.667381666408E+01 1.744771897061E+01 -8.788834186024E-01 4.143777719485E+00 -1.900147687345E+01 -2.943774079953E+00 -4.666294193135E+02 -7.729962209211E+02 7.098910030662E+01 -7.356349317551E-01 -2.179180311635E+00 1.564112721112E-01 5.593683516681E+00 -1.788695883934E+03 5.095589902768E+01 1.040587845040E+01 3.770316631100E+00 3.045540538961E+01 4.173156000378E+01 5.987546473176E+01 -7.491249168713E+00 2.688081621891E+00 6.016700335886E+00 -7.240445667938E-01 1.809993862301E+02 3.003816236049E+03
 5.064585749012E+00 -3.785922660633E+00 4.940281469259E+00 -1.722710471497E+00 4.860015257231E+00 -3.162673551023E+00 1.477190629333E+02 7.103246758756E+01 -1.026697614940E+02 -6.723935916840E-01 5.830874852642E-01 -4.736867584620E+00 6.213844564409E+01 4.353128112514E+01 -8.301040427578E+01 -6.975998889441E-01 -1.585702837091E+00 -2.310471985959E+00 6.765425098942E-01 1.722878829152E+00 5.388051457296E+00 -8.876621855844E-02 -1.197651051061E+00 6.393687149466E-01 -3.036371843007E+02 -9.510918317215E+01 2.029698910081E+02
 7.459338923045E+00 -5.700296126672E+00 1.712250896304E-01 -7.453901165416E-01 8.750870907494E+00 7.800469242928E-01 2.043759966853E-02 -1.636317372587E+00 -1.728456257186E+00 -1.221805990356E+03 -4.278236801045E+02 1.355529258520E+02 -1.216182562455E+03 4.301704334532E+02 1.219591478233E+02 -9.830522779130E+00 -5.094986540018E+00 -1.577001523077E+01 3.589160287297E+01 -5.388041102146E-02 1.074913014137E+00 -2.188546964830E+01 -3.655958888864E+01 6.605737119128E+00 5.067830981752E+01 -2.044913252890E-01 -5.238414161442E+00 2.794121255285E+03
 3.068553679271E+01 -2.445055471103E+01 -3.691531758495E+00 -2.363231887968E+00 3.151530748010E+01 -1.259408634161E+00 6.165976346288E+00 -7.787202575046E+00 -1.197095718838E+00 -4.244283154595E+02 -7.265252852090E+02 6.952066542559E+01 4.285972830939E+02 -7.964786431060E+02 -2.391304856706E+01 -3.381745102304E+01 -1.553148433621E+01 -5.297773621928E+01 -7.947618892020E+01 2.604659111153E+00 1.314706523265E+01 3.206287955716E+01 4.820734499841E+01 -1.630933210467E+00 8.370289207307E+01 3.609071424044E+00 -9.802651526436E+00 -2.337541832644E+01 2.879074948134E+03
 -4.038698134593E+00 -2.259565763936E-01 6.282383761245E+00 -9.191856623779E-01 -2.103059744993E+00 5.463441272725E+00 -3.636540199978E+00 6.267170545938E-02 -1.456921879571E+01 1.464717823544E+02 7.657349448264E+01 -1.160063245092E+02 1.179035415982E+02 -2.406667948353E+01 -9.455391750087E+01 6.278020116747E+00 3.639132015152E+00 7.360846490837E+00 -1.697725765153E+00 -1.082850833367E+00 1.229118818179E+01 -1.827553318806E+00 4.031284531988E-02 1.210728195234E+01 -5.772645751021E+00 1.143967241660E+00 1.144056534841E+01 -2.968932111136E+02 -1.117938934382E+02 2.412935565008E+02
 -5.262684351824E+01 4.092130095653E+01 4.201171864200E+00 5.197229309721E+00 -5.507325119517E+01 4.219320303489E+00 -1.019513148354E+01 1.261686342333E+01 2.489270265839E-01 -6.741352651832E+00 -8.877854342036E+00 6.363807417721E-01 2.286092065053E+01 9.918103522961E+00 -5.119265804538E+00 5.836215752470E+01 3.378549897957E+01 6.709676780792E+01 1.828569072854E+01 -3.519805379991E+00 -6.556405559128E+00 3.782925927357E+00 1.743272266912E+01 -3.711394919723E+00 -4.087389274212E+00 -7.429106323299E+00 1.255917185321E+00 3.303149615736E+00 1.262111720214E+01 1.763707921022E+00 2.722205865911E+03
 -8.393444161698E+00 4.945610235911E+00 -2.862181602643E+00 5.524089295209E-01 -9.017874344094E+00 -3.942627227199E+00 -2.177734721092E+00 2.058252861042E+00 -6.369679465329E-01 -2.414088879792E+00 -1.647027210266E+00 -2.471828325527E+00 4.863183226464E+00 2.594503734758E+00 -9.785048354606E-01 -4.659943128958E+00 -2.517180251776E+00 2.326624741717E+01 2.795552712914E+00 -5.672899203738E-01 -6.146835203496E-01 2.264198214993E-01 2.732703122409E+00 -1.382367024484E+00 -1.166885072797E+00 -1.820185643096E+00 4.514448677409E-01 1.433207717940E+00 2.594275408363E+00 2.316552089793E+00 -9.580909973889E+00 2.808765949657E+03
 -1.181132540092E+01 8.472157369829E+00 1.763144612884E+00 -9.665291124319E-01 -1.175584057515E+01 1.589395847049E+00 5.727471229436E-01 1.292375970752E+00 3.054824797020E+00 2.751358102104E-01 -1.096531549779E+00 1.579440068395E+01 4.970868637247E+00 1.175144809466E+00 2.298171802547E+00 1.915291123100E+01 8.091757537327E+00 1.306055988637E+01 4.227445366478E+00 1.354876240229E+00 -7.167033940699E+00 3.879867173088E+00 2.956547444713E+00 -4.870841421631E+00 -1.386904605241E+00 2.282357500037E-01 2.914326983455E+00 -1.540359140038E+00 1.207643333977E+00 -1.610964875491E+01 3.515633825552E+02 5.023635947999E+01 2.718899592892E+02
 -3.235705062340E+00 6.490303702265E+00 5.661900542295E-01 3.374921857964E+00 -5.263295371593E+00 -1.123468941983E+00 -6.973704543671E-01 1.097594685043E+00 2.304302852761E-01 -1.808342414821E-01 -5.857036649395E-01 9.162458225432E-01 1.160311345027E+00 9.764596609795E-01 -4.731867837104E-01 1.741662272865E+01 8.177607418627E+00 -1.177778000158E+01 2.393011014597E+00 -4.059544165191E-01 -4.057254579370E-01 5.904097384547E-01 1.857867243285E+00 4.255673385276E-01 -2.136975488692E-01 -9.839528292095E-01 -3.139047335214E-02 2.664965235143E-01 1.082300165992E+00 -8.373456470763E-02 3.847022340089E+01 7.114011909257E+01 3.710122819121E+00 2.756391631052E+03
 1.482490336235E+01 -9.426440123162E+00 -2.569961795666E+00 1.587542208286E-01 1.498666951783E+01 -8.329348743801E-01 2.543485844596E+00 -3.351630632714E+00 -3.688613846349E-01 1.854521132751E+00 2.573036174871E+00 -4.500832100020E-01 -6.320760748626E+00 -2.236551704914E+00 1.127606130617E+00 -1.618865199582E+01 -7.328217010760E+00 -1.849333559318E+01 -4.621581756130E+00 7.508296403524E-01 1.527604531454E+00 -1.114354935969E+00 -4.552108960613E+00 1.135936688202E+00 1.160730172849E+00 1.569574989650E+00 -2.609299264275E-01 -6.511593348767E-01 -3.222872745067E+00 2.393141457110E-01 3.475100886285E+00 -9.972948164711E-01 1.688477218985E+00 2.793642434105E+02 2.852635591388E+03
 -1.540182288122E+00 1.872854635022E+00 5.551444169267E-01 5.932951675988E-01 -2.092639676659E+00 5.622973153080E-01 -4.078680187566E-01 4.131569093185E-01 -1.207408533008E-01 -3.881763773802E-01 -3.583332707733E-01 2.911168547436E-01 1.023294419682E+00 5.631171313606E-01 -1.153976074189E-01 9.093349118275E-01 1.084114816693E+00 -7.899728342861E-01 9.012792398094E-01 -1.239186420540E-01 1.054579938927E-01 2.145213248003E-01 7.367627499875E-01 2.645048379340E-01 -3.044710415020E-01 -3.408685822680E-01 -3.032892910601E-02 1.813308045325E-01 6.312643642860E-01 -1.839011956631E-01 2.644148262598E+00 9.292737692133E+00 1.119488131987E+01 3.090334697740E+02 5.686461673853E+01 1.865489850543E+02
 -2.712633569324E+02 1.551348754693E+02 5.666973672795E+01 8.090360714617E+01 -2.622418336955E+02 4.374343920951E+01 -6.621449519857E+01 7.132316299607E+01 1.270291648935E+01 -3.735531756502E+01 -4.922929053432E+01 -9.094467907792E+00 1.089557888444E+02 4.358369600244E+01 -6.993696236361E+00 -6.682402650684E+02 -7.168416414322E+01 -2.801147537532E+02 8.897246520755E+01 -4.450953623102E+01 -1.443744876000E+01 -1.895772703401E+01 1.052610446834E+02 -2.070309420188E+01 -2.806075127352E+01 -3.911208209328E+01 9.815139804486E-02 1.405124128379E+01 7.166909066582E+01 -9.100642613781E+00 -1.326644921227E+02 2.618062828465E+01 -2.109322918913E+01 -1.687178980027E+01 2.336283866886E+01 -1.578309007422E+00 2.769502941119E+03
 -1.136672682319E+02 1.883044740083E+02 4.023967173311E+01 -4.398231512805E+01 -1.727561957437E+02 1.683193358222E+01 -4.117575435945E+01 4.343683275921E+01 8.877270016654E+00 -2.430259618311E+01 -2.852000408266E+01 -3.881458377073E+00 6.899455475692E+01 2.783115413540E+01 -6.303419099623E+00 -1.087675459951E+02 -5.083009197798E+02 -1.006514410437E+02 6.065071050108E+01 -2.715884303501E+01 -1.079988071561E+01 -1.017550919400E+01 6.292934771248E+01 -1.393827762598E+01 -1.720052223714E+01 -2.413162488034E+01 4.493450408675E-01 9.678805072683E+00 4.455122221858E+01 -5.044585234913E+00 -1.092443306776E+02 5.230978002322E+01 -1.919739042502E+01 -9.996303860817E+00 1.478803159430E+01 -1.978989359096E+00 -3.213284472450E+02 2.986840759916E+03
 2.757447069011E+01 7.054743227433E+01 -9.495073970122E+00 1.031647961814E+02 -2.963210151152E+01 -3.252519007448E+01 -3.098964213030E+01 2.943946625908E+01 6.157251993058E+00 -3.163145884189E+00 2.049203145370E+00 -3.076018708491E+00 2.772131905499E+01 1.536040214587E+01 -4.870007568046E+00 -3.012787650250E+02 -5.914550943089E+01 1.449808441594E+02 1.264048849633E+01 -5.345913007352E+01 3.033623939921E+00 -5.025364774101E+01 3.259588196525E+01 6.779706666308E+00 -1.045231784604E+01 -2.430720468858E+01 -1.318553747357E+00 -2.501617736217E-01 3.389876584031E+01 3.918794852264E+00 -5.936806747104E+01 2.869203516852E+01 -5.294636333924E-01 -2.800711889748E+01 6.076014367304E+00 -5.045415796512E+00 4.393511407400E+02 1.500518164579E+02 6.549019016865E+02
 1.182319788674E+00 8.022664678507E+00 6.941500612887E+00 -8.971552134005E+00 -3.484988929161E+01 -9.195693181624E-01 -1.007420243291E+00 1.918888269091E+00 -8.652438880409E-01 1.003049236613E-01 -5.265828457216E-01 1.961655636243E+00 2.069699031491E+00 7.112768868080E-01 -1.173402129206E+00 1.505261397824E+01 1.401187702280E+01 -4.406788068720E+01 3.188385218953E+00 -2.431268319024E+00 -1.066675257243E+00 -5.552269246629E-02 2.708284849344E+00 1.507739429348E+00 -3.399712178197E-01 -1.250027225721E+00 7.295263493990E-01 1.133007209078E-01 2.367034372858E+00 7.729480295845E-01 3.603339874759E+01 -7.019384481809E+01 6.678941698230E+00 -2.386569012719E+01 4.080640304032E+01 -5.019722227450E+00 3.296077054572E+00 4.132808863477E+01 -8.469851394071E+01 2.753783229613E+03
 7.058661537232E+01 -4.982972525163E+01 -1.247645362238E+01 3.256439564932E+01 1.292919755397E+02 -5.500105534542E+00 1.481925946301E+01 -1.790344073459E+01 -1.019917207296E+00 1.059594917427E+01 1.286005002160E+01 -9.601255560186E-01 -3.098738763669E+01 -1.064319324332E+01 5.335909598768E+00 -7.080964633698E+01 -4.379000897284E+01 -9.737878440747E+01 -2.486079998078E+01 6.519611662438E+00 8.214509348855E+00 -3.067838083462E+00 -2.434606741331E+01 6.704280130629E+00 6.214230097578E+00 8.702990750191E+00 -2.156292585175E+00 -3.435342067487E+00 -1.720982780563E+01 -2.849357497411E-01 2.489298413172E+01 6.123186472553E+00 5.486229596384E+00 -3.883370073406E+01 6.795593717796E+01 -4.530025265494E+00 1.597409895558E+02 1.064481258892E+02 5.980741893211E+01 3.741406806607E+00 2.705365855471E+03
 -3.246940317906E-01 4.412680679543E+00 1.041655598242E+00 -3.196314300738E+00 1.343675347346E+00 6.933157415312E+00 5.327321153979E-01 -1.749866359661E-01 2.741600964144E+00 -1.754467526385E+00 -2.405092750289E-01 6.059059064310E+00 1.791247920757E+00 2.830119029288E-01 2.071949726761E+00 -3.691978359911E+00 2.880470573788E-01 1.137521556165E+00 3.407119530634E+00 6.961059151613E-01 -2.572701809156E+00 1.937146405875E+00 2.296641431673E+00 1.041943009907E+00 -1.669008698744E+00 -1.793736638912E-01 8.118941607400E-01 1.793064201714E-01 7.271347984388E-01 -8.115068094882E+00 7.567974702462E+00 -1.636627064829E+01 2.135339595769E+01 -6.350984610869E+00 9.824230272057E+00 1.184586508445E+01 -8.047317406208E+00 -9.338487524084E-01 9.768468070786E-01 2.080742862813E+02 -9.881716072959E+01 2.214286032513E+02
 2.453496177670E+01 -2.007010376231E+01 -5.216443531442E+00 -3.044898312024E+00 2.624142402050E+01 -3.843414443589E+00 4.756421921869E+00 -6.319924020945E+00 -5.845304253606E-01 2.824565504650E+00 4.422649971779E+00 -3.345185296238E+00 -1.047200631636E+01 -3.619730676977E+00 1.678572803132E+00 -4.036856880371E+01 -2.066985275356E+01 -1.685796632580E+01 -9.204165471845E+00 2.134002679720E+00 3.819768368115E+00 -1.776361096458E+00 -9.087789875033E+00 1.748946659833E+00 2.004903745146E+00 2.983306755030E+00 -1.179245058411E+00 -7.729950922110E-01 -5.918315289619E+00 2.070142231574E+00 -1.203519786646E+03 4.353839852413E+02 -1.459790380597E+02 -5.015162620348E+02 -2.109754902956E+01 -5.219873920002E+01 6.459110467322E+01 3.951279347832E+01 4.371928970492E+01 1.983293467852E+00 -1.441613061964E+01 -1.317003947876E+00 2.799894185726E+03
 -1.950515356930E+01 1.558146637256E+01 4.194497147482E+00 1.649372361130E+00 -2.083863609924E+01 1.817060038433E+00 -3.180807981039E+00 4.946747342085E+00 1.474945876172E+00 -2.121489350622E+00 -3.555312306167E+00 3.334024467995E+00 8.022082504372E+00 2.375725253129E+00 -1.202168309251E+00 3.146700825712E+01 1.316196837982E+01 2.109997727995E+01 7.490083747870E+00 -1.324328144750E+00 -2.877094687933E+00 2.015706768327E+00 7.119144077884E+00 -1.578607850947E+00 -1.769041103048E+00 -2.140586800832E+00 4.238436239030E-01 3.766497876072E-01 4.445479331627E+00 -2.783487239156E+00 4.283597488503E+02 -7.314517799141E+02 4.612066458103E+01 -2.954842201476E+01 -1.530201234835E+03 -2.555605514789E+01 -4.615661674516E+01 -2.719128119060E+01 -3.077476882562E+01 -1.312088053562E+00 1.036579508029E+01 -4.346173800531E+00 3.709953627166E+01 2.886120567805E+03
 7.758443605382E-01 -1.036615080312E+00 6.073405677861E-01 -4.292636369145E-01 7.914099467211E-01 -2.949640533028E+00 -1.677723761952E+00 2.295289403003E-01 -5.141924333402E+00 -9.862578698530E-02 1.140928221289E-01 3.259301920212E+00 2.331530055098E-01 8.073077276430E-02 1.120576710985E-01 -1.274469214663E+00 -5.493738263512E-01 -1.739408251810E+00 -8.201695410489E-01 -6.413632844016E-01 -2.908149166111E+00 -6.171258210362E-01 6.038518726892E-02 5.156258795454E-01 1.063284091100E+00 1.084302403006E-01 4.256683468669E+00 -2.530058128117E-01 3.288336054067E-02 8.631104672203E-01 -1.432805361395E+02 4.380437146875E+01 -1.020847034260E+02 -5.119320971874E+01 -2.430449224734E+01 -8.375307216827E+01 2.625175546268E+00 7.825013058232E-01 4.557308798657E+00 6.041815821129E-01 5.267205905653E-01 -1.076897558325E+01 3.344996198872E+02 4.038942526732E+01 2.314583289331E+02
 1.143627375377E+02 -9.429995352139E+01 -6.631781258397E+00 -1.957509045342E+01 1.187420112278E+02 -2.758968230435E+00 2.426361938754E+01 -3.120013165114E+01 -3.837946261488E+00 2.037826112746E+01 2.316964410369E+01 -3.534405041118E+00 -5.126092362930E+01 -1.843388912055E+01 8.344102155875E+00 -1.778388077240E+02 -4.147589568446E+01 -1.309129445684E+02 -4.800582133565E+01 1.093429454872E+01 1.557162953567E+01 -7.955029788408E+00 -4.556080439125E+01 1.071703712144E+01 1.334386099813E+01 1.740907543193E+01 -3.435478007717E+00 -8.411625750661E+00 -3.155949568441E+01 1.975256874592E+00 -1.133968507453E+03 -4.114382347394E+02 -1.678526676325E+02 5.546551625402E+00 -1.327630409231E+01 2.928969552815E+00 -8.403497754252E+02 5.511143894148E+02 -5.580576131519E+01 -4.661019210509E+02 -9.558775455900E+01 -5.287855234705E+01 -4.471972434958E+01 -1.475453849036E+01 -4.881155805982E+00 2.543443782897E+03
 -8.053331782722E+01 8.023118707982E+01 3.814449983949E+00 1.586369629321E+01 -9.556666205349E+01 -7.269473248880E+00 -1.696193908003E+01 1.988495216809E+01 -6.148781376195E-01 -9.568975154876E+00 -1.300825450461E+01 5.843137958782E+00 3.224547787703E+01 1.725946957637E+01 -7.614212932378E+00 9.706465131805E+01 1.244000496117E+02 6.631246449867E+01 3.275338160786E+01 -5.565334418801E+00 -1.168563198639E+01 7.515342533434E+00 2.842854655666E+01 -5.802053114323E+00 -5.366580884690E+00 -1.392952328393E+01 3.835721091795E+00 5.374469825555E+00 1.909218554441E+01 1.261838096538E+00 -4.559635962204E+02 -7.296580558178E+02 -6.631478882246E+01 -7.816706720098E+00 6.296757824239E+00 -1.990269722587E+00 2.686911113607E+02 -9.403906630894E+02 -4.779251581472E+01 -2.706207348561E+01 -1.455062710155E+03 2.915951767783E+01 5.192526882093E+01 4.585543634961E+01 7.947398013343E+00 1.081802570549E+02 2.790184678676E+03
 1.574210469017E+01 -1.601606505057E+01 2.245399042499E+00 -3.340061330186E+00 1.904588390237E+01 -1.128339169588E+01 7.087296154016E+00 -8.738028987025E+00 -9.096403865372E-01 1.144092180315E+00 5.033620948262E+00 -8.898943628713E+00 -3.998172565706E+00 4.086789432765E+00 -1.652824103994E-01 -2.137290375843E+01 -9.111890763412E+00 -9.696120727999E+01 -6.074709448866E+00 8.560060507472E+00 8.100187766664E+00 3.595808717777E+00 -1.299964806645E+01 3.895902031837E+00 1.499290819661E+00 1.341120682989E+00 -3.589462489737E+00 2.797440719695E+00 -4.972323018206E+00 6.769439104914E+00 -1.695143295207E+02 -6.745929017685E+01 -1.274960531587E+02 5.197602594873E+00 -4.762288760351E+00 -9.138093420989E+00 -3.849247396357E+01 9.372416843272E+01 -1.445817566312E+02 -3.653006482962E+01 5.361737204969E+00 -1.105270973604E+02 -6.697224356670E+00 3.824798211017E+00 8.269666153703E+00 4.426929436204E+02 -1.773102430722E+01 4.087396940897E+02
 4.617497980932E+00 -6.174783233958E+00 -2.692579603761E+00 -2.514104763370E+00 6.227181250927E+00 -3.991367415998E-01 1.692700364444E+00 -2.283313910809E+00 -6.713951784484E-01 1.092125573382E+00 1.570536814791E+00 -8.656251884284E-01 -1.891664046974E+00 2.071800310942E-01 -8.474731247868E-02 -2.090036005284E+01 -1.097805466008E+01 1.074391946246E+01 -3.264947171992E+00 1.760672177047E+00 8.530222273502E-01 4.450926151199E-01 -3.707594277258E+00 4.497282622034E-01 8.491739599712E-01 7.827097234679E-01 -2.888842235525E-01 -3.997349774985E-02 -1.960863364027E+00 9.250263671407E-01 4.062322315839E+00 4.569357210248E-03 2.664983131782E+00 -1.499443310017E+03 -5.281711915552E+02 -1.687722762775E+02 3.150361290282E+01 1.885430134147E+01 4.592873168849E+01 -1.248770729150E+03 4.241058436086E+02 -1.343495117550E+02 4.698635184723E+01 -6.855746010077E-01 3.367785649181E+00 3.061883137842E+01 5.712612119920E+00 -4.493928125900E+00 3.036189912034E+03
 -1.498753079146E+01 6.494639534507E+00 5.315740691595E+00 -2.224597791971E+00 -1.357209768664E+01 6.106967653985E+00 -3.274393825633E+00 3.666661596047E+00 9.312703815190E-01 -2.347970266588E+00 -3.006490312579E+00 -7.323674968852E-01 6.583458498293E+00 1.362382690438E+00 -1.146185505097E-01 1.100637458677E+01 6.919071539733E+00 2.261968237300E+01 3.603383690927E+00 -1.939309437411E+00 -9.444319487950E-01 -8.648889696640E-01 4.947811915854E+00 -1.969208028290E+00 -1.568182507336E+00 -1.007424860948E+00 1.039365984145E-01 3.549168169387E-01 3.331062245817E+00 -1.167244578065E+00 -4.364940588226E+00 -1.134115734050E+00 6.455112589027E-02 -5.386704960885E+02 -8.641802797526E+02 -6.245524415409E+01 -3.074143412696E+01 -2.091961273867E+01 -9.850267692111E+00 4.121416991090E+02 -7.151682838240E+02 6.532598541391E+01 -8.237754319706E+01 9.316918655760E-02 -1.070773838162E+01 8.427301125086E+01 -3.168717927841E+00 1.268445400686E+01 1.000108544057E+02 2.537213132327E+03
 1.492775665422E+00 -2.170267517071E+00 5.478814614923E-02 -1.175141082767E+00 6.483645347463E-02 2.661545751217E+00 -1.249113219115E+00 -4.423555546548E-01 -3.896669439687E+00 -1.109061119746E+00 -4.925132906236E-01 -2.991776058411E+00 -3.397468357195E-01 9.957128473704E-02 -5.309038519830E-01 -3.004146484412E+00 1.038790248270E+00 -4.267784275682E+00 -5.883458186935E-01 2.175106987461E-01 -4.226074605512E-01 7.043382857494E-02 -1.417420640759E-01 4.452662328701E-01 7.655643265592E-01 -1.146084067604E-01 2.232803410342E+00 1.180491849432E+00 2.803550917514E-01 5.377159193415E+00 -1.437393692315E+00 6.142115660058E-01 -1.568604788909E+01 -1.645443602032E+02 -6.326384446639E+01 -8.968922412976E+01 1.145760427004E+01 5.265219975842E+00 1.520137564344E+01 -1.431938336603E+02 7.374168226950E+01 -9.389507129882E+01 3.883027126957E+00 2.511677705329E+00 1.367583230162E+01 3.070309202019E-01 -2.287497628423E+00 9.685407663025E+00 3.404078600695E+02 -1.756915531594E+01 1.950166053563E+02
 -4.814725025490E+01 2.505496404107E+01 -2.250076859956E+00 -1.250195017146E+03 3.941479785821E+02 3.234754341111E+00 -8.568020611706E+00 1.032986262450E+01 8.079061592223E-01 -6.888768726541E+00 -8.805367402349E+00 1.676052309685E-01 1.796985937680E+01 5.285399902401E+00 -2.928477357932E+00 1.107797676868E+02 2.834168622331E+01 8.186837166035E+01 1.366555638779E+01 -1.771451489437E+00 -5.939703951268E+00 -1.568992665223E+01 5.002613058812E+01 -4.331934532694E+00 -4.028272071510E+00 -4.213693245723E+00 1.367840469245E+00 2.545959480618E+00 9.490017248522E+00 -5.664705061692E-01 -1.306753820786E+01 -2.151325985159E+00 -6.182699521304E+00 -1.078365206806E+00 4.358458980356E+00 -6.728256364252E-01 -4.888799529323E+01 -2.871040186466E+01 4.270701299525E+01 -1.148099859987E+03 -3.840676568398E+02 -3.674155426973E+01 7.336837846900E+00 -6.733252655094E+00 7.105132877341E-01 7.575638773801E+01 -1.690186530721E+01 6.189010245082E+00 -1.516620007847E+01 -3.567003484271E+01 2.910208241304E+00 2.737676594444E+03
 2.544566490116E+01 -2.155542883214E+01 -3.683139728328E+00 4.455387613731E+02 -7.040700106574E+02 3.415701389695E+01 4.837778967344E+00 -5.761721958314E+00 3.633034957512E-01 3.080683128035E+00 4.790763349188E+00 -3.455385518918E+00 -7.783924385474E+00 -2.466706370923E+00 2.349611100263E+00 -6.517347328506E-01 -2.574652545187E+01 7.163219712238E+00 -1.058628108380E+01 6.029380110818E-01 4.402951495352E+00 -3.689024582787E+01 5.191767796539E+01 -5.206413970277E+00 1.213707997668E+00 2.376381879939E+00 -1.609733828470E+00 -1.227432920028E+00 -5.025808113366E+00 5.554610706476E-01 8.450474331810E+00 2.183882734528E+00 7.391222321927E-01 8.198831558805E-01 -2.455624467392E+00 8.131378082793E-01 6.587003887499E+01 3.432382914275E+01 4.737569370667E+01 -3.981295751846E+02 -6.753514406638E+02 -8.380396776312E-01 -3.701672006630E+00 3.012216668293E+00 -2.094936938716E-01 -8.478258492131E+01 1.851526333848E+01 -3.874419387158E+00 3.001839678368E+01 5.876386703005E+01 -1.875606224223E+00 1.475278515227E+01 2.770203335105E+03
 2.438089455825E+00 -1.202703656513E-01 5.994546387057E+00 3.674859443508E+00 5.094887873602E+01 -1.117407911787E+02 -1.566791321025E+00 -7.107879293636E-01 -1.263844247657E+00 -4.597142957828E+00 1.470485948630E+00 6.376652995699E+00 2.126654621789E+00 1.484947424560E+00 2.325537576870E+00 -1.541991962163E+01 -1.211122152563E+00 2.057473374290E+01 3.802582028797E+00 1.083008801336E+00 -2.544109995476E+00 4.995523642058E+00 -1.502939379714E+01 8.085054236304E+00 -7.584409598362E-01 -9.262955939029E-01 3.264888937618E+00 8.084519448531E-01 -7.085550351053E-01 -2.345392445362E+00 -5.712213750971E+00 -1.178921672258E+00 7.953348223576E+00 9.526228447580E-01 -6.277770391306E-01 5.208321101578E+00 1.273604928852E+01 6.219605275870E+00 -6.581348964812E+00 -2.051619944435E+01 1.277400403180E+01 -7.577262752620E+01 4.531769402577E-01 1.310885815135E+00 3.635717377926E+00 3.054242689259E+00 3.159414371774E+00 6.300262862193E+00 -8.502517639024E+00 -7.058470207726E+00 1.151868521628E+01 2.264018448257E+01 -1.375456810045E+02 2.164181189715E+02