#BIOSYM hessian 1
@Type: Hessian Update
@Units
 distance: 	A
 energy: 	Kcal/Mol
#header
@natom 67

#label
C1      C2      C3      C4      C5      C6      C7      C8      C9      C10     C11     C12     C13     C14     C15     C16     C17     C18     C19     C20     C21     C22     C23     H24     C25     C26     C27     C28     C29     C30     C31     C32     C33     C34     C35     C36     C37     C38     C39     C40     C41     C42     C43     C44     C45     C46     C47     C48     C49     H50     H51     H52     H53     H54     H55     H56     H57     H58     H59     H60     H61     H62     H63     H64     H65     H66     O67

#element
C  C  C  C  C  C  C  C  C  C  C  C  C  C  C  C  C  C  C  C  C  C  C  H  C  C  C  C  C  C  C  C  C  C  C  C  C  C  C  C  C  C  C  C  C  C  C  C  C  H  H  H  H  H  H  H  H  H  H  H  H  H  H  H  H  H  O 

#matrix
201
 2.762116230197E+03
 -1.402872919315E+01 2.800542766568E+03
 6.526459362894E+00 2.012761365589E+01 1.906199311063E+02
 4.504720045258E+01 6.743560186401E+01 -1.367471783015E-01 2.700010494087E+03
 3.213289138261E+00 1.528924497730E+00 -1.661788418120E+00 -1.253006092948E+02 2.729220618416E+03
 1.595733643958E+00 1.520852205967E-01 9.066322624084E+00 1.130956814045E+02 -2.843359228909E+01 2.076296316621E+02
 -1.553923280986E+01 3.540200041820E+01 1.115444074538E+00 -2.414421418819E+01 -2.762567574502E+00 -3.828880843482E+00 2.767225575344E+03
 -3.012421795595E+01 5.907826356976E+01 3.628801739175E+00 -2.184583397793E+01 -2.427891197313E+00 -8.373535599071E-01 -1.143961094434E+01 2.754341409978E+03
 -4.125397553997E-01 1.305036344648E+00 8.703221733094E+00 8.436064248490E-01 -9.742466058157E-01 2.970349452664E+00 -1.115833034991E+02 3.938130516669E+00 1.919253401852E+02
 4.484409829526E+01 -6.497817245538E+01 -2.989504315991E+00 -6.645065564082E+01 2.721270291884E+01 -1.279823502210E+00 1.803444425861E+01 4.581947914306E+01 4.888977430836E+00 2.742707165608E+03
 6.432482800628E-01 2.777065874000E-01 1.266724544223E+00 -2.314165735214E+01 5.224856142623E+01 5.436696713472E-01 2.298144114150E+00 3.119518772410E+00 -3.078542085323E-01 -2.260456428486E+01 2.750238865177E+03
 -2.376004791834E+00 -4.495097032186E-01 5.265827060981E+00 5.612235544933E+00 5.284894804728E+00 -1.881263191995E+01 2.049552020516E-01 -5.127979293785E+00 8.007148575734E+00 -6.847192834426E+00 5.824541831153E+01 2.432674166555E+02
 -3.122880243073E+00 -7.162896708026E-01 4.302690070623E-01 2.345626855354E+01 3.552604855992E+00 1.107669885377E+00 5.980566626574E+01 -7.303715026276E+01 -6.180557565694E+00 3.389486526419E+00 3.363483751546E+01 2.502378544603E+00 2.558637632281E+03
 6.976846774782E+00 5.766022085572E-01 -1.193303177710E+00 -5.251655900668E+01 -6.988540294976E+00 -3.347980196364E+00 -2.390887405259E+01 -2.364956331235E+01 2.261565191102E+00 -8.327998196542E+01 6.986210284257E+01 1.234222597339E+01 -1.213638205414E+02 3.027731783260E+03
 2.446282013982E+00 -8.471160044969E-02 9.537365212723E-01 -6.981250791211E+00 -8.494032784312E-01 -1.947476897363E-01 -8.177058061147E+00 1.007804667100E+00 1.081576435182E+01 -3.604148727022E+00 2.203517763756E+00 5.559342063848E+00 -1.477503918182E+02 1.168192824545E+02 1.716555637014E+02
 -1.209251430770E+03 4.389402444399E+02 -5.330366689222E+00 -4.506488293487E+02 -1.488325630086E+01 -1.009988554540E+01 8.591805283015E-01 3.359147087114E+00 3.476497246686E-01 5.175313676456E+00 -3.419067473080E+00 -2.103930639989E+00 -3.038354378651E+00 6.268194683701E+00 1.837018056452E-03 2.784335775724E+03
 4.306702646694E+02 -7.281600480079E+02 3.206614472635E+00 1.147202850730E+01 -1.423200602969E+03 7.024959510176E+00 5.988166064760E+00 8.006525767327E+00 1.428333068356E-03 1.366110870063E+01 -1.568643175742E+00 -2.332747999569E+00 -7.631943436731E+00 1.717155789346E+01 1.746877818331E+00 -1.562086645119E+00 2.750489912201E+03
 -8.070436636519E+00 1.543665679530E+00 -8.150734277288E+01 -1.478460182638E+01 4.178026494958E+00 -8.327032626905E+01 1.175081949427E+00 8.166826556434E-02 3.989249084948E+00 5.139852245578E-01 -1.528730902665E+00 -4.190037745695E+00 -4.147249963932E-02 -1.035616078175E-01 1.908068268872E-02 3.623647169680E+01 1.174218640328E+00 1.902503727366E+02
 -1.195471446069E+03 -4.135149149938E+02 2.091987222028E+00 8.904112985307E+00 -4.631468063398E-03 5.824913461009E-01 -1.238054037898E+03 4.549930623346E+02 4.333666050941E+01 -4.577274105062E+02 -1.079479487357E+01 3.677370678516E+00 -4.372935564825E+00 7.139769549527E+00 -1.376504935977E+00 -1.865660168299E+01 -3.311173848374E+01 -1.632917985983E+00 2.786975582873E+03
 -4.059289404111E+02 -6.888128593728E+02 -1.250525316135E+01 -1.901117399170E+01 -4.755320437635E+00 -1.520168633151E+00 4.487517667300E+02 -7.420736194724E+02 -2.549523944216E+01 -2.779614005538E+01 -1.436706108811E+03 -3.801024608311E+01 8.169006236806E+00 -1.438083683999E+01 6.048419063260E-01 3.520670730710E+01 6.191707268203E+01 7.864180391997E-01 -2.657159830294E+01 2.738964398000E+03
 2.620543702748E+00 -7.062806968231E+00 -7.768310046253E+01 -3.025077386977E+00 6.590887673132E-01 7.524728732203E+00 4.420979066928E+01 -2.280677876448E+01 -8.394384582422E+01 4.624850555993E-01 -4.909601760347E+01 -1.118900682213E+02 1.522858149302E-01 -1.643779229210E+00 -4.104945277757E+00 -8.240610956507E-01 -2.417670792401E-02 5.853407346590E+00 -4.781369384702E+01 7.904557629569E+01 2.131924403599E+02
 -6.274746263146E+00 -1.144086626810E+00 -1.730827962761E+00 -1.055242904488E+03 -3.589104515651E+02 -4.136764262262E+01 1.971352591824E+01 2.126403605688E+01 -1.611165573343E+00 -1.183878408011E+03 4.387981053960E+02 -7.180122481663E+00 -2.067019743497E+01 4.779300062582E+01 7.560167036622E+00 2.839989904749E+01 -1.311991694983E+01 1.493389443571E+00 3.276983151796E+01 1.358570832872E+01 2.515223633775E+00 2.652497811518E+03
 -5.851391579271E-01 2.605462850479E-01 2.901133085696E-02 -3.797322520285E+02 -6.626896868322E+02 -1.601369912120E+01 3.226526651770E-01 -7.523051005609E+00 1.659665346340E+00 4.468933320847E+02 -7.169280421303E+02 -4.321660018126E+00 3.452184710536E+00 -9.673745694702E+00 -2.373632693008E+00 -5.819369852491E+01 5.148292573031E+00 -3.819433263833E+00 6.552295811423E+01 6.136310163329E-01 5.518347384985E+00 -6.632944948055E+01 2.824810543018E+03
 -1.356885567648E-01 -5.211591900061E-01 -9.786501233346E+00 -3.616093005583E+01 -1.288416030858E+01 -1.032338672912E+02 2.489123587100E+00 7.461910381378E-01 -1.092125529826E+00 -1.098872305344E+01 3.392605818892E+00 -4.862097610876E+01 8.358650775429E-01 5.946710912828E-01 8.210472253096E+00 1.362075177191E+00 -3.691387169052E+00 1.262169144718E+01 1.933320182385E+00 6.636304805004E-01 -1.068140350041E+01 7.285724472364E+01 -6.939478684736E+00 2.329681998578E+02
 -2.033622771270E+00 2.285783105256E-02 -1.636138760263E-01 1.271938590194E+01 1.307197750397E+00 8.441550264349E-01 -1.203351412225E+03 -4.183959919855E+02 5.871030534909E+01 9.661783101465E+00 -1.099965073248E+00 1.687105999800E+00 -5.654593299533E+02 5.705689273625E+00 3.362410035682E+01 1.235743385264E-01 -2.596280966664E+00 -2.862032187914E-01 -2.381771895216E+01 -3.137834630744E+01 3.283536982180E-02 -9.947584982803E+00 -1.478925198440E+00 -2.680031026940E-01 2.562282657617E+03
 -5.251353948394E+00 -5.067574152678E-01 7.692826331946E-01 4.345063122248E+01 4.749098195860E+00 3.209286741685E+00 -4.195489690537E+02 -7.346740180443E+02 1.613483630322E+01 4.337623795283E+01 -7.298760135122E+00 -3.650466437262E+00 -3.803352548484E+01 -1.817554482486E+03 -4.819636400196E+01 -6.317068769468E+00 -1.462562735451E+01 -1.369711241743E-01 2.946701996444E+01 7.088534629016E+01 -1.536836366870E+00 -4.048905445111E+01 1.111277200706E+01 -1.763110900922E+00 1.601854101769E+02 3.018593928302E+03
 8.289337375151E-01 7.971748621866E-02 4.368329858404E+00 -4.176727305016E-01 3.741629307565E-01 -5.600627591316E+00 5.480199826958E+01 1.828005192550E+01 -8.068333029295E+01 -1.780068606371E+00 -1.636577506967E+00 -4.076077308679E+00 3.131789587247E+01 -4.864973257890E+01 -7.325536013883E+01 1.798534619197E-01 -1.319534694703E+00 1.045353626887E+00 2.621525472942E+00 6.619998318569E-01 5.824680363539E+00 4.878776545900E-01 -9.165061029735E-01 8.107561751412E+00 -1.381187942147E+02 5.892910751791E+01 1.629788149387E+02
 -2.051878583267E+00 -1.626558766448E+00 1.288158195346E+00 1.161904965379E+01 5.082034219692E+00 2.105289009945E+00 3.537774347039E+00 3.133486574291E+00 -7.749414740276E-01 -1.213644892860E+03 -4.105263464264E+02 7.129625774805E+00 -1.239185801316E+03 4.460198122124E+02 8.947121648812E+01 -6.849670813973E-01 -3.366764333702E+00 2.883143387252E-02 3.658878291910E+01 6.566783011686E+00 3.955831146127E+00 -2.232776886047E+01 -3.647117903040E+01 -7.008536609348E+00 4.941854628933E+01 -8.706830307889E+00 -5.631625795533E+00 2.798035431616E+03
 -1.404342456560E+01 -8.780651396004E-01 1.097845635060E+00 1.014542384279E+02 1.244549657795E+01 5.159598012050E+00 4.703161778510E+01 4.706406779126E+01 -3.606271112056E+00 -3.147993638059E+02 -7.254668830692E+02 -2.414615876145E+01 3.817491143430E+02 -6.648384822351E+02 -5.663413253111E+01 -1.128457554364E+01 -3.260532797639E+01 4.837480745391E-01 -8.433925084285E+01 3.063879957423E+01 -8.407496940955E-02 -5.703718464023E+01 7.328193677735E+01 1.198265176288E+00 6.129348514260E+01 -8.933949692369E+01 -3.264337755424E+00 -1.041209862620E+01 2.720770002393E+03
 -2.395945654905E+00 -1.209865288578E+00 5.116461202798E+00 1.049628556350E+01 -2.720934865044E+00 1.297122007840E+01 6.648212920427E+00 6.239556745011E+00 -9.492336932075E+00 2.325279498250E+01 -1.246217090513E+01 -1.076458001776E+02 9.132803502754E+01 -5.960012164402E+01 -8.986211461774E+01 -1.957526959813E+00 -1.445274308838E-01 -1.129199484356E+00 -2.764484658828E+00 1.134721997319E+00 1.570313595349E+01 -8.779511622677E+00 -2.201789694726E+00 -2.284960700515E+00 -5.524166411779E+00 -7.752125744408E+00 9.519017210785E+00 -1.369677150370E+02 1.915214578062E+02 2.754148531912E+02
 8.470896535243E-02 1.067193400415E-02 1.106589424574E-01 -1.276247473392E+00 -2.943614651789E-01 -1.212798806802E+00 -3.692243502378E-01 -8.127180222569E-01 -3.647053959236E-02 -1.477035228354E+00 4.513081871839E-01 9.546221325033E-01 7.011968388622E-01 -1.564954167826E+00 -2.272638225086E-01 2.547725903243E-01 3.325262162083E-01 4.956647725032E-02 1.303737638892E-01 -1.853622910307E-01 -3.455652823248E-01 1.288193107804E+00 -6.368817164155E-01 4.412342850467E-01 1.316254847051E-01 1.482801754175E+00 6.543591109938E-02 4.673561301210E-02 3.033638599316E+00 3.561226966748E-01 2.816966181740E+03
 1.778274396700E-01 7.253526788302E-02 -2.562098827835E-01 -3.050853075870E-01 -1.543067281883E-01 4.653674896013E-01 6.504126438468E-02 -9.697547795036E-01 4.282647587726E-01 -1.057629472149E+00 1.826012748123E-01 -1.433088746456E+00 3.340629041115E-01 -1.203586706632E+00 2.433202709866E-01 4.282593383183E-01 7.182573844107E-01 -4.171935571543E-02 -1.542445007434E-01 3.751438872198E-01 8.822621635659E-01 1.123311365243E+00 -8.446028414471E-01 -1.463032328660E+00 -3.513319351155E-01 1.317113761040E+00 4.424760056556E-02 5.279263522315E-01 1.341552795238E+00 -2.013235031640E-01 4.465542164605E+00 2.809273308570E+03
 4.354204256110E-01 6.962578210284E-02 5.233773259751E-01 -1.129860248465E+00 -2.606675631204E-01 3.794628625191E+00 -6.185763543896E-01 -1.648010231406E-01 2.122153238095E-01 -3.889401056460E-01 -1.374711303295E-01 -6.680274830063E+00 1.755500187102E-01 -4.695459987609E-01 8.657337281051E-01 -4.171824784125E-02 6.834998321487E-01 3.995266050015E+00 1.222449998183E-01 -1.449532676268E-01 4.431136985854E+00 8.208767746556E-01 6.597068917140E-01 -4.741283464016E+00 2.263415704919E-01 5.007760048847E-01 -1.021862621917E+00 7.862641230358E-01 6.149369326149E-01 1.976266863891E+00 1.930116226499E+01 -3.797343093177E+01 1.963178738057E+02
 -7.871115558677E-02 2.944502905120E-01 2.567670558550E-01 6.628044629834E+00 -4.038322589190E-01 6.511891213107E-01 2.139200261480E+00 5.355780480696E+00 -4.332264927702E-01 8.237249197255E+00 -2.672101839972E+00 9.554864934337E-01 -3.779854230837E+00 9.152647235485E+00 5.965422614433E-02 -1.873071525009E+00 -2.985072694382E+00 2.527632189038E-01 -4.341496674916E-01 -2.513681583543E-01 -7.585631119497E-01 -7.546624201008E+00 3.865958122806E+00 6.424580900439E-01 -3.361428885030E-01 -9.247056742349E+00 -5.910535328617E-02 -5.448313069127E-02 -1.619115989422E+01 -1.723199257238E+00 4.157715215732E+01 7.124014200672E+01 -1.626399811225E+00 2.797517208297E+03
 -9.736768609357E-01 -1.417853972274E-01 9.445611570952E-02 7.050152170002E+00 5.315613493337E-01 7.277874131242E-01 3.873572782273E+00 2.272090385303E+00 -5.481722314321E-02 6.207858902933E+00 -8.710828876111E-01 -1.144456899774E+00 -3.049810845185E+00 6.604771867832E+00 8.515722147329E-01 -2.542835089444E-01 -1.520134732326E+00 -3.545247449510E-02 -1.402260027001E+00 2.768609214382E+00 5.864828613895E-01 -5.829739196489E+00 -2.240853368566E-01 -9.131326527826E-01 -2.285900469286E+00 -5.064983001336E+00 -4.801786156307E-02 -1.406548100002E+00 -1.371375939755E+01 -1.760541557009E+00 -1.045132768219E+00 -1.804381273538E+00 -4.006869235761E-01 2.884897739293E+02 2.838571676484E+03
 9.093577082665E-02 1.015002616134E-01 5.820624467843E-01 -6.445722667098E-01 -2.363941537797E-01 -6.105918606056E-01 -4.139938129678E-01 2.311250245694E-01 -1.326424587499E+00 -9.543426966843E-02 -5.202557191273E-01 -2.436440851860E+00 1.976777216883E-01 -7.111565428121E-03 2.904582432997E+00 8.056640954489E-02 1.923976937748E-01 1.356629429852E-01 1.288046579452E-01 -4.767705202907E-01 2.873482271609E+00 3.772753341696E-01 -1.641622898371E-01 3.015045857603E+00 3.867782710268E-01 -1.741503812027E-01 3.960951813288E-01 8.693891506091E-01 1.404193947500E-01 -8.611802170060E-01 -6.118678557705E-01 1.169517483640E+00 1.120753708821E+01 4.489041780612E+00 -4.248381406886E+01 1.511259573694E+02
 -1.767940606017E+01 -3.332789918998E+01 -5.918318527814E-01 2.312978030758E+01 -2.514318498081E+00 -3.382735593420E+00 -6.671976245801E+00 -6.948661661056E+00 2.816860948680E-01 -1.512837524466E+01 2.411360971912E+00 2.452199428567E+00 7.253900619349E+00 -1.594607663466E+01 -1.600621592414E+00 -1.236061886608E+03 -4.273843534323E+02 -1.814052816197E+01 2.218596207591E+00 -4.835573011060E+00 1.216915021489E-01 1.437146416583E+01 -2.640713244403E+00 1.512570759933E+00 3.342208521905E+00 1.336120005981E+01 4.175039280021E-01 3.854100760997E+00 3.088536644739E+01 3.324277685869E+00 -2.038709561560E+01 3.420676873147E+01 -7.092096378727E-01 2.350058732621E+00 2.031322664327E+00 1.023701433090E-02 2.803952541082E+03
 3.493880868053E+01 6.009768235447E+01 4.879346947470E-01 -6.151756153704E+01 6.767097985997E-01 1.890970056233E+00 3.450324435791E+00 1.230964314552E+00 9.832223278190E-02 4.730902120189E+00 -1.461940899712E+00 -1.949776446684E+00 -2.212061871998E+00 4.631112917422E+00 1.113851120056E+00 -4.331272926647E+02 -7.206795883195E+02 -7.397770671489E+00 -1.568924542512E+00 2.111905704113E+00 1.076793822948E+00 -4.317700537940E+00 -8.681921086842E-01 -8.297549554305E-01 -2.186885450269E+00 -3.603462812161E+00 6.683462299611E-01 3.864902696069E-02 -1.055791295140E+01 -2.791519813794E+00 -3.367400151439E+01 5.846673014656E+01 -7.440828010813E-01 -4.561894497290E-01 -1.121247103577E+00 3.147491475851E-01 2.805805091904E-01 2.777733131122E+03
 7.681086073034E-01 2.170045724106E-01 9.918963825157E+00 4.021351450221E-01 1.759344379024E-01 1.301911965171E+01 -3.412713687424E-01 -1.349441737840E-01 2.098964014509E-02 -2.867190033332E-01 -1.596695802055E-01 -5.802744172665E+00 1.252663432867E-01 -5.230163213542E-01 1.170785008155E+00 -2.069938428868E+01 -7.423623110698E+00 -8.361024052246E+01 -9.565549504924E-02 -4.151714441472E-02 8.579366068613E+00 6.557567198170E-01 4.810703079791E-01 6.170618482728E-01 1.520634472660E-01 5.467926291627E-01 -8.756820689893E-01 7.801877178682E-01 5.639360995276E-01 1.357571134723E+00 1.538178583344E-01 -8.507635945658E-01 9.689422548754E+00 4.500594369083E-01 3.109754543073E-01 5.439623448145E-01 4.436642234534E+01 -1.349909815291E+01 1.930436057090E+02
 -6.129813150177E+00 -1.132841561248E+00 1.051590558259E+00 1.874573142974E+01 -2.948757120484E+01 6.693369235707E+00 1.835932624219E+01 1.927758539060E+01 -8.271356370176E-01 3.978411150399E+01 -5.458835965275E+00 -6.245007724450E+00 -1.901678216046E+01 4.326034666195E+01 4.993144782686E+00 -4.105577171434E+00 -1.255382155825E+01 -7.579154444041E-01 -6.036156418312E+00 1.283006573522E+01 2.504203644057E+00 -3.645505747997E+01 7.072979662822E+00 -5.064646385501E+00 -9.068268311169E+00 -3.645037202378E+01 -1.081932007824E+00 -9.253198908987E+00 -8.242628700969E+01 -6.492935632204E+00 3.994004388348E+01 -6.747198358082E+01 3.854000240236E+00 -2.937625696966E+01 3.403675591860E+01 4.014675720864E-01 5.338243277666E+01 6.374727962303E+01 -4.121290306769E-01 2.804381195615E+03
 -2.578311262929E+00 1.634073064020E-01 6.620054323731E-01 6.526454016680E+01 6.494649355265E+01 -9.382870921715E-01 1.167608394625E+01 1.337309630783E+01 -7.480042272025E-01 2.651149166973E+01 -5.208798596895E+00 -9.465172810851E-01 -1.262341349030E+01 2.843399267327E+01 3.129489126003E+00 -4.445039504487E+00 -9.900196608143E+00 1.424005695582E+00 -3.957937570084E+00 6.465678628156E+00 3.022010860618E-01 -2.415661379343E+01 6.001156341720E+00 8.130054630568E-02 -5.370403600006E+00 -2.517835970849E+01 3.859500864911E-01 -3.417216119699E+00 -5.461793268691E+01 -4.877279076632E+00 8.633428155261E-01 9.808995666490E-01 5.821661664447E-01 -4.787092671960E+01 7.013994666970E+01 -9.800727903778E-01 7.089470449611E+00 -2.147731940517E+00 -1.183922205981E-01 7.843803728607E+00 2.735336185129E+03
 7.059423707053E-01 7.895613357746E-02 -8.270496828209E-01 -4.647286342436E-01 -3.793332669591E+00 6.343517970106E+00 6.675259566405E-01 -1.302874338726E+00 6.296193105747E-01 -1.061377518156E+00 -2.547071637806E-01 7.556833072767E+00 2.842651465986E-01 -1.810527436123E+00 -3.177279706916E+00 -2.457967693707E-01 -1.928477597617E+00 -8.838626582932E+00 -2.959767085132E-01 3.818003477415E-01 -5.987792374776E+00 6.277154962088E-01 -1.442735327868E-02 6.917957108261E+00 -3.150313448482E-01 1.605448850626E+00 9.967237296657E-01 -4.458440063289E-01 2.893657882746E+00 -3.661823768271E-01 -4.362312528996E-02 -5.062130529476E-01 7.839541540436E+00 7.746904978965E-01 -1.682480847077E+00 1.015897144181E+01 -1.063492308479E+00 1.188443702744E+00 8.482383414302E+00 2.482530478313E+01 -5.139281913566E+01 1.871021997122E+02
 -3.931316138398E-02 -1.468732443428E-01 -1.380944125974E-01 -3.315233786248E+00 4.314348908067E-01 1.048314478291E+00 -9.926651980451E-01 -2.913461742474E+00 4.164688222202E-01 -4.235539890744E+00 1.550460827656E+00 -2.059239409317E+00 1.867471327199E+00 -4.770698137772E+00 1.606426552456E-01 1.118787683207E+00 1.710678521752E+00 -5.114788012192E-01 1.482133806415E-01 4.255233734571E-01 1.352563429084E+00 4.031338893944E+00 -2.059070612617E+00 -1.811393300271E+00 -3.554738866005E-02 5.033441661542E+00 -3.892988751560E-01 -7.047447574214E-02 8.111340126396E+00 9.673441420456E-01 -1.236198881482E+03 4.341348625120E+02 -1.351597681867E+01 -5.027935304253E+02 -1.288850316196E+01 -7.978051359084E-01 -1.361372980833E+00 1.021696311331E-01 -3.296098135482E-01 3.888036791728E+00 3.253396151278E+00 -2.158901836217E-01 2.857695546681E+03
 5.896523861819E-01 -1.177619460001E-01 1.749775607970E-02 -7.275852525439E+00 -1.185319270210E-01 -9.086125962806E-01 -3.390313596419E+00 -3.012220895092E+00 -1.400150206543E-01 -6.624102615419E+00 1.573206729286E+00 1.660924510381E+00 3.308992791437E+00 -7.221851560646E+00 -7.392663839178E-01 5.828586655015E-01 1.818830001513E+00 4.118167403759E-01 1.184897496391E+00 -1.962619870531E+00 -8.234114322841E-01 6.106839629916E+00 -9.206278503763E-01 1.806409345006E+00 1.845786170255E+00 6.192179106012E+00 4.706322858345E-02 6.352877746714E-01 1.468619361990E+01 2.050677162369E+00 4.341066260397E+02 -7.303222089052E+02 1.304378485896E+01 -2.192686104606E+01 -1.511740343959E+03 2.410557822121E+01 -1.834257001908E+00 1.038282350596E+00 1.036507070368E-01 5.673977817002E+00 3.831769360140E+00 1.131356639270E-01 3.723475607052E+01 2.871746825498E+03
 1.865184139018E-02 -1.639376645138E-01 -5.003515967979E-01 5.359677502713E-01 6.838009500737E-02 -2.086576864937E-01 3.231584676862E-01 1.293033117678E-01 9.043873509345E-01 3.424165191496E-01 2.310626580610E-01 2.928972132857E+00 -3.493205681068E-01 3.735031640050E-01 -2.132023168280E+00 -2.485357055685E-01 -1.143153271925E-01 -3.758583239674E-03 1.144189468572E-03 2.647957700050E-01 -2.794063597889E+00 -4.734146870359E-01 4.078231088823E-01 -1.342790187348E+00 -1.961286984419E-01 -3.452211994366E-01 -1.822567730959E-01 -5.284133742843E-01 -5.441152722037E-01 3.657349498964E-01 -1.566300520205E+01 1.259251027128E+01 -8.589574247380E+01 -1.233503690442E+00 2.387919915427E+01 -7.809950297767E+01 5.810208700824E-01 -1.250600828065E-01 4.076890193020E+00 -5.451792295796E-01 5.518673510147E-02 -9.070533688008E+00 1.460452986568E+01 -4.508953700754E+01 1.861151263462E+02
 -7.433201358399E-01 2.217130911833E-01 -5.021156055600E-01 7.551335110800E+00 8.325491852293E-01 3.705642106018E+00 3.463636180802E+00 2.609819025532E+00 1.654951576319E-02 6.486080959614E+00 -1.544603062129E+00 -2.378981418768E+00 -2.969564641863E+00 6.662126453318E+00 1.060271166946E+00 -2.033860979796E+01 3.276996165180E+01 -2.128342293232E+00 -1.527764759752E+00 2.437604589440E+00 8.157532428764E-01 -5.972635928926E+00 7.108755647062E-01 -1.392658630289E+00 -1.911970335693E+00 -5.448985473012E+00 1.910253794209E-01 -1.142686025044E+00 -1.308522792190E+01 -1.709311379120E+00 -1.223687518311E+03 -4.298260261789E+02 -4.459853243082E+00 -6.436116332751E-01 -6.168514950968E-01 -2.246997763109E-01 -1.215122269316E+03 4.415761716350E+02 -1.967940993959E+01 -4.806506473096E+02 -2.369709907024E+00 -2.368305683841E+00 -1.968982531290E+01 -3.328918949724E+01 4.975131802682E-02 2.799593273790E+03
 1.321032555396E+00 1.715604079722E-01 -1.002961593377E-01 -1.360153086495E+01 -1.944592716281E+00 -1.757524368356E+00 -7.433906208593E+00 -4.447322520054E+00 1.898478603838E-01 -1.174815913765E+01 2.171387236728E+00 3.521242083741E+00 5.694894892917E+00 -1.272486209526E+01 -2.506581651823E+00 -3.344086905131E+01 6.204945654293E+01 -1.354490025509E+00 2.831002632980E+00 -5.059513704215E+00 -2.413051979997E+00 1.059008385255E+01 4.479534346200E-01 1.467458659731E+00 4.246419537013E+00 1.018730705416E+01 -7.005673683451E-01 1.479992580744E+00 2.622017020571E+01 3.186629603590E+00 -4.302242645407E+02 -7.194309082272E+02 5.684586436842E+00 1.714686184789E+00 2.315763957340E+00 -1.645909714041E+00 4.393533752426E+02 -7.260157449640E+02 1.419004832025E+01 1.146355514541E+01 -1.456775362823E+03 2.936513076489E+01 3.373157054106E+01 5.736918635650E+01 -1.929295317558E-02 -1.130371862109E+01 2.787184134438E+03
 -2.047514639905E-01 2.068657862955E-01 4.523462945397E+00 2.538149952916E+00 5.048384192517E-01 -1.281478749078E+01 1.201645924756E+00 6.891630917805E-01 -1.057605410661E+00 1.459671435699E+00 -3.223396226818E-01 3.949959529777E+00 -5.598465850076E-01 1.505323684615E+00 1.438170802712E+00 -7.840775473502E-01 -6.817447333886E-01 9.697912579762E+00 -4.948278087007E-01 5.837589744393E-01 -1.880751531992E+00 -1.410317306077E+00 -6.823030418524E-01 5.950886401653E+00 -3.945840073281E-01 -1.287458282436E+00 1.130812433540E+00 -5.543830057753E-01 -2.658534066528E+00 -2.415479918467E+00 -1.663430477772E+00 7.406899272384E+00 -8.341262664226E+01 -8.717693869015E-01 4.982427778777E-01 -9.461993723083E+00 -2.196211484099E+01 1.328681855300E+01 -8.276847830550E+01 -5.999858942016E+00 2.622182387848E+01 -8.366837208148E+01 -1.240529348725E+00 -1.793159589546E+00 8.891421145141E+00 2.733711969904E+01 -4.789063332916E+01 1.944662895115E+02
 1.796507315767E+00 2.101094796209E-02 -3.315058458435E-01 -1.551138213618E+01 -1.483576576745E+00 -3.473366129418E+00 -7.552958259124E+00 -6.713808946272E+00 1.999195362726E-01 -1.500630997814E+01 2.727665940965E+00 2.366651568804E+00 7.426625076640E+00 -1.604785855628E+01 -1.478423838267E+00 1.416043041298E+00 4.200542086192E+00 3.057863939633E-01 2.405939079408E+00 -4.611356162294E+00 -1.164592052060E+00 1.387427606504E+01 -2.013413594099E+00 2.124942727638E+00 4.085326090599E+00 1.337584063404E+01 7.012277557789E-01 2.656278842434E+00 3.259558315564E+01 4.443551841408E+00 -5.056714688796E-01 -2.779905086823E-01 -6.888997591883E-01 -1.524244813080E+03 -5.385962642563E+02 2.987682465394E+00 -4.448758430712E+00 2.037415618080E+00 -6.665034153955E-01 -1.225102639496E+03 4.229182823541E+02 -1.539028573568E+01 4.781281903689E+01 -3.127384140889E+00 -6.280688721635E-02 3.994647828724E+01 -4.459657121975E+00 2.321973569762E+00 3.050330715602E+03
 -1.482147134104E+00 -4.484473216663E-01 -3.411904668669E-02 2.630457051358E+00 1.817666815892E+00 1.598748200607E+00 2.660097632674E+00 -2.182364795277E+00 3.522557800086E-01 -7.392110242634E-02 1.930190007887E+00 -3.406952310570E+00 9.716485487629E-02 -4.861136905098E-01 9.042278191214E-01 1.290721323475E+00 4.226305752349E-01 -4.482609324716E-01 -1.513281545726E+00 3.902143309743E+00 1.859127678944E+00 -5.599104771900E-02 -3.804019148003E+00 -2.463239305823E+00 -2.367177851777E+00 2.615724617877E+00 -6.883084938496E-02 -2.598857202185E+00 -8.921861969253E-01 4.732843277350E-01 2.561226157029E-01 -4.610910194741E-01 9.666168693693E-01 -5.514442051517E+02 -8.757407501836E+02 1.176744633428E+01 9.576862688264E-02 -5.809827095546E-01 -2.133868122122E-02 4.036414176340E+02 -7.123174692195E+02 1.316513243271E+01 -8.668602606060E+01 1.331174859842E+00 -5.702713653110E-01 6.856409608567E+01 1.458596965347E+00 2.953672141218E-01 1.217379002989E+02 2.528833321640E+03
 2.227114409398E-01 3.528072390621E-01 -3.265424462598E-02 -1.131630659779E+00 -2.824436213658E-01 5.017367400029E+00 -5.165927740178E-01 -5.766360892884E-01 5.414464183586E-02 -1.194470866099E+00 2.201986911310E-01 1.095480882184E-01 6.187451169554E-01 -1.419531511454E+00 -1.101381177308E-01 -2.396261532030E-02 2.313564512797E-01 -3.069301946215E-02 5.718084672870E-02 -6.457168273190E-01 1.350065770633E-01 1.086962383586E+00 -2.857286479503E-01 -6.357996093048E-02 1.587572515242E-01 1.219759757355E+00 -1.845499362335E-01 4.237172825184E-01 2.588651852058E+00 -6.363235141494E-02 7.038668916460E-01 -1.365129584306E+00 -1.020128430303E+01 3.839373181830E+00 1.163954801296E+01 -7.004273877272E+01 -9.683884803912E-01 4.675881468808E-01 4.550724330839E+00 -1.408852716549E+01 1.301483220578E+01 -7.544062386453E+01 6.245016996879E-01 -1.635525407227E-01 1.048822957885E+01 9.870474191714E-02 7.761246303713E-01 9.694030748431E+00 1.261477920493E+01 -3.317435929926E+01 1.509603951410E+02
 1.972678308992E+00 2.994533646777E-01 -4.371856348217E-02 -1.313073699560E+03 5.002119806823E+02 -6.471742911653E+01 -3.201699263483E+00 -3.069571786372E+00 5.825120793088E-02 -7.574130839589E+00 -2.453822283894E-01 2.037025509271E-01 3.951453980545E+00 -5.882107836519E+00 -6.719326853867E-01 4.122920167440E+01 4.216725906358E+00 4.209176700797E+00 9.144449411886E-01 -3.300148450040E+00 8.496313495921E-01 -1.530721504418E+01 2.987566553090E+01 -4.356475387997E+00 1.450833362318E+00 4.161916074115E+00 1.624080542293E+00 3.551217432165E+00 1.048237541781E+01 -8.375634158418E-01 -2.875593715732E-01 -4.309204962036E-02 -3.276404147187E-01 -1.332606698006E-02 5.113363218035E-01 -2.433230429109E-02 -1.240794096693E+00 -1.122387571810E+00 -7.412226396862E-01 -1.229867111638E+03 -4.518533110233E+02 -1.060416570863E+01 -1.211621949978E-01 -1.469010275118E-01 1.090653621290E-01 3.857773698601E+01 -1.003943870889E+00 1.682983269908E-01 -1.924428559197E+01 -3.310936698898E+01 -6.044236976307E-01 2.835040360888E+03
 9.229186227910E+00 -2.668322629919E-01 -1.503954175558E+00 4.171925605887E+02 -7.688011498724E+02 3.645875794434E+01 -3.649828204185E+01 -3.119344112644E+01 2.468513708604E+00 -6.935782604833E+01 1.140050283003E+01 6.637744564539E+00 3.111707483003E+01 -7.403162058699E+01 -9.452918350920E+00 8.006175308757E+01 2.080322001165E+01 3.575770225976E+00 1.491603624065E+01 -2.224455780032E+01 -4.197257355207E+00 3.047580663813E+01 5.114105897683E+01 -4.785803512738E-01 1.931759217212E+01 6.197316165416E+01 -1.182793245059E+00 1.217077431336E+01 1.422063103209E+02 8.845752162070E+00 -2.060982611918E+00 -1.096282569154E+00 -1.526240698079E+00 1.225207786875E+01 1.086618551814E+01 -6.886391039852E-01 -2.158664697436E+01 8.222175437255E+00 -8.602983536081E-01 -3.812095482481E+02 -6.743282232864E+02 1.451536236061E+01 -6.387179380887E+00 -1.082018678457E+01 9.102195346433E-01 -5.982743286490E+01 -1.846548991885E+01 2.003066319474E+00 7.307399935574E+00 6.037655342504E+01 -1.324396299460E+00 -2.351200542328E+01 2.453144861060E+03
 -2.272599255160E+00 1.036163253223E+00 5.330418452676E+00 -6.599006070561E+01 3.720901853220E+01 -7.868661823337E+01 1.753094676437E+00 3.343313709811E+00 -3.445760624825E-02 7.807356557594E+00 -9.552189721956E-01 -1.744409964561E+00 -3.563703004174E+00 5.078394973885E+00 3.299258398101E-01 3.276145038647E+00 1.425306577749E+00 9.904412750472E+00 -5.540282281520E-01 -8.034118943832E-01 3.661957450538E+00 -5.286092848069E+00 3.770274362285E-01 3.975049271051E+00 -1.150761523732E+00 -4.892627558585E+00 -9.459977865099E-02 8.788883551249E-01 -1.202595145528E+01 -1.450486338401E+00 4.705030856144E-01 1.453997680587E+00 5.234587424043E+00 -1.906696561080E+00 1.107393144955E-01 5.807512685621E+00 3.376500521224E+00 -2.392559098447E+00 -8.702176902708E+00 -1.132244135401E+01 1.167474510742E+01 -8.069525653865E+01 1.007314361780E+00 -6.990945540431E-01 -3.809983758800E-01 -1.544386020086E+00 2.411147770005E-01 9.156191267117E+00 9.998287411830E-01 3.223399989323E-01 8.072420720871E+00 8.191616136682E+01 -1.029830832596E+02 1.832119030033E+02