#BIOSYM hessian 1
@Type: Hessian Update
@Units
 distance: 	A
 energy: 	Kcal/Mol
#header
@natom 67

#label
C1      C2      C3      C4      C5      C6      C7      C8      C9      C10     C11     C12     C13     C14     C15     C16     C17     C18     C19     C20     C21     C22     C23     H24     C25     C26     C27     C28     C29     C30     C31     C32     C33     C34     C35     C36     C37     C38     C39     C40     C41     C42     C43     C44     C45     C46     C47     C48     C49     H50     H51     H52     H53     H54     H55     H56     H57     H58     H59     H60     H61     H62     H63     H64     H65     H66     O67

#element
C  C  C  C  C  C  C  C  C  C  C  C  C  C  C  C  C  C  C  C  C  C  C  H  C  C  C  C  C  C  C  C  C  C  C  C  C  C  C  C  C  C  C  C  C  C  C  C  C  H  H  H  H  H  H  H  H  H  H  H  H  H  H  H  H  H  O 

#matrix
201
 2.772177011801E+03
 -2.066917800047E+01 2.811986361747E+03
 1.628880740675E+01 -5.459128343360E+01 1.928019273666E+02
 3.869255578848E+01 6.674124545414E+01 -8.150100796140E-01 2.796014765167E+03
 1.390279078984E-01 -3.377424185100E-01 4.581495417713E-01 -2.287317730923E+01 2.766205134327E+03
 2.562453220714E-01 6.920796384410E-01 8.492123688349E+00 1.240533959641E+01 -4.510640431690E+01 1.916778113218E+02
 -2.313717622465E+01 3.276380238562E+01 -8.962855505774E-01 -2.678326776835E-01 3.335154331685E-02 7.743150489381E-02 2.793659441046E+03
 -2.855576373020E+01 6.183178831205E+01 -1.695615833918E+00 3.454301615491E-01 5.361601551003E-01 -8.926270947922E-03 3.781157559978E+01 2.730424379849E+03
 9.174617259996E-01 -1.357872405920E+00 7.956353983132E+00 -1.640375857143E-01 1.563568623574E-01 -9.660956266008E-02 7.125808701929E+01 -4.262837892036E+01 2.061223538978E+02
 3.773584505958E+01 -6.732433209783E+01 9.900781809717E-01 -1.956125681373E+01 3.497164434435E+01 -8.490235659943E-01 3.906793667293E+01 6.967437054383E+01 -8.378448662647E-01 2.798926044063E+03
 -9.904323420540E-01 -4.456570250171E-02 2.595479962257E-01 -3.278449304599E+01 5.898085650532E+01 -1.338397781713E+00 -1.147081487992E+00 2.417987728697E+00 1.230757355996E+00 2.178584520751E+00 2.803068949128E+03
 -2.652620563530E-02 8.359009450003E-02 9.344287760970E+00 3.303113600039E-01 -1.177802414852E+00 9.232719830015E+00 1.718425637495E+00 2.562768571632E+00 5.951191557558E+00 3.178472187542E+01 -3.831627732461E+01 1.963845084714E+02
 -2.582283113807E-01 -2.401104951595E-01 4.249192994600E-02 -2.305246858266E-02 -3.782681014463E-02 2.119431400505E-03 4.989916499344E+01 -8.187569957512E+01 3.704940463419E+00 -2.140134596009E+01 3.679738510053E+01 -1.439643930329E+00 2.597389388724E+03
 1.015478125140E+00 8.273315844972E-01 -1.977355105137E-02 -3.061934483050E-02 2.373848145924E-02 -2.728710857883E-02 1.328115066501E+00 -3.315621060176E+00 -1.233184570570E+00 -3.488251802767E+01 6.161619106873E+01 -2.743812407276E+00 -1.737233047016E+02 3.047585520611E+03
 1.591597671570E-01 3.820298503527E-01 2.140706943344E-01 -3.233471891436E-01 9.623229501129E-02 1.857397045797E-01 2.240578969804E+00 -2.752079997945E+00 1.290915356103E+01 -5.200275505857E-01 -7.950328681609E-01 1.137570114667E+01 9.030138688115E+01 -6.384723215480E+01 1.552938740961E+02
 -1.216468200116E+03 4.410995081599E+02 -1.477013571826E+01 -4.644231681047E+02 -4.848415729997E+00 -1.923044549404E+00 2.106818503762E+00 -2.925819088991E+00 -4.489872257193E-02 1.886735851003E-01 -6.593776409453E-02 3.550941730582E-01 1.891719651281E-01 -4.446210130716E-01 4.419128938244E-02 2.814525060089E+03
 4.351378718890E+02 -7.284864910849E+02 1.511447309472E+01 -2.764103523071E+00 -1.431426781460E+03 2.372326261819E+01 -2.498912866382E-01 2.720199581256E-01 -4.964739309783E-02 -2.181512796032E-01 9.073918954126E-02 -5.340993761540E-02 -4.053096494519E-02 9.342197811065E-02 -2.225506122013E-01 3.329837465236E+00 2.772056594934E+03
 -1.366726933528E+01 1.508864778005E+01 -8.240098912060E+01 -2.124350586771E+00 2.457863211652E+01 -8.131617537630E+01 3.337054341927E-01 -1.896085962741E-01 4.857992167832E+00 1.249417267477E-01 9.687242938691E-02 -8.934473688217E+00 -4.905673395007E-02 -3.670998033043E-01 4.367224341993E-01 1.337765657716E+01 -4.659570038023E+01 1.930890457166E+02
 -1.194371552565E+03 -4.129545587544E+02 2.496239585551E+00 6.544881680029E-01 -5.368817034691E-01 -5.396373040361E-02 -1.229922576071E+03 4.361285239886E+02 -2.845120849316E+01 -4.702932603785E+02 -3.398284717512E+00 -4.185419769268E+00 4.826490836817E-01 -1.663719386671E+00 7.520216936788E-01 -2.131439821577E+01 -3.218153395674E+01 1.167717073944E-01 2.783711023722E+03
 -4.127004252202E+02 -7.024506954862E+02 1.087403649757E+01 -7.753999437555E-01 -1.549333030235E-01 -1.757400234301E-01 4.492584548615E+02 -7.287857837535E+02 1.836609487636E+01 -7.026409307769E+00 -1.461315053538E+03 1.918531557021E+01 1.986677170902E-01 -3.707084038859E-01 -8.513610437840E-01 3.501462172387E+01 5.732237865790E+01 -6.859997098888E-01 -2.443968043834E+01 2.774979607927E+03
 -5.451310353155E-02 9.887919023645E+00 -8.150572845580E+01 6.083950411766E-01 -2.585845371740E-01 -8.940398736284E+00 -2.371096781390E+01 1.377692361021E+01 -8.001913464969E+01 -4.016839915700E+00 2.294969315911E+01 -8.354861465222E+01 -8.680216470082E-01 -9.425172584015E-01 -1.005751710266E+01 -8.791253466327E-01 -2.945377612244E-01 8.695342937417E+00 2.763823161108E+01 -4.782225021478E+01 1.925961123681E+02
 5.763208156010E-01 -3.907549265341E-01 2.117991263657E-01 -1.223296496156E+03 -4.221137590681E+02 1.119981240695E+00 1.588331064508E-01 2.121930666982E-01 5.024702021659E-01 -1.215166262398E+03 4.346812110324E+02 -1.799393668629E+01 1.234084724568E-02 3.238384428147E-02 1.125893475243E-01 3.756264883546E+01 -1.969831929468E-01 3.762586965081E-01 3.893351320457E+01 3.245109718561E-01 -2.931442792542E-01 2.801378062452E+03
 2.258754522759E-01 -7.930662471954E-02 -5.348847645531E-01 -4.248349817159E+02 -7.080312603663E+02 8.932231259771E+00 2.454243371193E-01 -1.286115020778E+00 -6.568672705079E-02 4.372446528020E+02 -7.306400483451E+02 1.476146713677E+01 1.393721595792E-01 -9.144371839390E-02 -8.997133057972E-02 -6.697315420422E+01 3.729454097677E-01 -5.331073313030E-01 6.738698854927E+01 1.736304074118E-01 3.487144260910E-01 4.579165096508E+00 2.800408912260E+03
 2.494742702037E-01 -4.409803736779E-02 -9.123218790947E+00 7.016960780776E-01 8.515883543909E+00 -8.252501440873E+01 -5.274058263772E-01 -2.041465784800E-01 6.018971867104E+00 -1.712276907884E+01 1.377480016340E+01 -8.425397548078E+01 1.714203562329E-02 5.227892929103E-02 4.208592746769E+00 1.308271059201E+00 -8.246017746581E-02 8.935225769238E+00 -7.488942360799E-01 1.818825553424E-01 9.279722550814E+00 1.885188799369E+01 -4.773511371641E+01 1.958312783544E+02
 3.256575363936E-01 -4.591345615532E-01 -6.612322858950E-01 2.495627332997E-01 -2.542033671104E-01 3.889251351497E-02 -1.226184003581E+03 -4.462516797191E+02 -3.422557444930E+01 -3.045818963483E-03 -1.060784210968E-01 -1.655401375179E+00 -5.675044297392E+02 -3.704857972767E-01 -2.358269739654E+01 -3.739186425914E-01 2.957032751591E-01 -3.162104981620E-01 -2.221631971614E+01 -3.632869111828E+01 3.738994327638E-01 -3.574202166438E-01 2.648629747604E-01 2.817009174026E-01 2.587527814006E+03
 -1.009199561896E+00 -1.303054715527E+00 -4.828179625887E-01 1.693644512990E-01 -3.182394754437E-01 1.046259054864E-01 -4.624109772258E+02 -7.620970500460E+02 1.884000308928E+00 -3.233158893358E-01 -1.593621754443E+00 -1.279167471127E+00 -1.170342647938E+01 -1.815826978189E+03 3.874878813970E+01 3.677712265853E-01 4.272239186106E-02 7.959312410906E-02 3.671617953911E+01 6.038359645536E+01 3.393913137918E+00 -2.433132319923E-01 5.213272951578E-01 1.848191100518E-01 1.860037213468E+02 3.022280775616E+03
 -2.879702402525E-01 -1.371694364278E-01 4.984836136368E+00 3.001417768396E-01 -2.598760502925E-03 1.563257329741E-01 -3.999215837787E+01 -4.898800793719E+00 -8.096549927753E+01 1.880480997125E+00 -4.406747054987E-01 -8.752821768935E+00 -2.279360951457E+01 4.453132181833E+01 -7.242777114737E+01 -2.779624082893E-01 4.240619764387E-01 -1.632925594088E-01 -1.154487729081E+00 8.990695070944E-01 8.647821547920E+00 -4.366162327897E-01 -9.645466663339E-02 -8.753569068205E-01 1.197683897349E+02 -7.159165713857E+01 1.607191382236E+02
 4.507953795284E-01 5.670250471428E-01 -2.600341935784E-01 2.795883954111E-02 1.929438570162E-02 3.559748973079E-03 9.848992254325E-01 -1.660830868565E+00 9.954201792213E-02 -1.230558827194E+03 -4.344728887591E+02 -9.656596277305E+00 -1.258753420035E+03 4.608834904537E+02 -4.341621888168E+01 -3.029073354226E-01 3.208912671862E-02 -2.382396072245E-01 3.903511418497E+01 -3.116478081539E-01 1.441466021287E+00 -2.017250992437E+01 -3.428445985482E+01 5.871000938061E-02 5.215117242500E+01 2.514378165054E-01 3.389645167743E-01 2.847991659030E+03
 -7.218746255399E-01 -1.266468814171E-01 1.637954599454E-01 -1.503663688894E-01 6.583653932708E-02 5.690703656728E-02 -1.146655666662E+00 1.061496360238E+00 -1.024082770763E+00 -4.336465094287E+02 -7.303369790254E+02 6.211053563210E+00 4.513406150187E+02 -7.799326430196E+02 2.762275295027E+01 5.901972747845E-01 -1.632230305997E-01 -6.339423483260E-02 -6.720524483061E+01 2.391179364016E-01 -1.860846101934E+00 3.497737368362E+01 5.948844636304E+01 1.194684630494E-01 8.472723804980E+01 -4.237712431554E-01 1.800081034577E+00 -3.763510053998E+01 2.881070642551E+03
 1.140986869788E-01 1.374850897145E-01 4.420639152460E+00 -1.630416563610E-01 -1.087788676683E-01 4.418787954119E+00 3.075655938164E-02 3.773715127539E-01 -1.082942029618E+01 -1.147746359955E+01 3.499196403370E+00 -8.556843301953E+01 -4.080319453881E+01 2.621614383431E+01 -7.922378630438E+01 1.194393401751E-01 -1.475785321761E-01 -1.241406314943E-01 1.479385214959E+00 6.118934926318E-02 9.448590805904E+00 -8.563065137793E-01 -9.152351955195E-02 9.507004833491E+00 -7.939148888237E-01 -4.095638568734E-01 1.077810004898E+01 6.039164290411E+01 -5.655120716789E+01 1.879805476149E+02
 5.550341536914E-02 2.787151421010E-02 -8.780279301365E-02 -3.533726973608E-03 -5.084041045834E-02 -3.723738786007E-02 5.311866987331E-02 -1.794587858311E-01 -2.245718684909E-01 1.848435250445E-02 4.171110266324E-02 -2.528455536469E-02 2.704912928288E-02 -4.777003788267E-02 -1.336531908813E-01 -3.531309080330E-03 -1.127550853559E-02 -2.022345224082E-01 -2.151011224204E-02 -4.135702184558E-02 -2.824153569932E-02 -2.028334058687E-02 2.391926131645E-02 -5.206073120404E-03 5.176162067496E-02 9.238082720102E-02 4.780654659782E-02 -2.921203483830E-02 3.511065644661E-02 5.437656888319E-02 2.803898801701E+03
 -1.345180352366E-01 -2.048541459500E-01 -6.866101166733E-02 1.021551332838E-01 -7.278407591270E-02 3.943968437580E-02 -2.575423203800E-01 4.628290199551E-01 1.930175846476E-01 -2.589472235838E-02 -1.585523695010E-01 -7.826000149948E-02 5.700599448871E-03 1.977780035539E-01 -1.758381248316E-02 1.776437786744E-02 -4.625845411659E-03 -9.191498466979E-02 1.640264431856E-01 1.369212035528E-01 -1.056246677129E-01 -8.753761409649E-02 8.268835070162E-02 9.820660333225E-03 -8.816659777462E-02 -2.507008828141E-01 -1.144290864858E-01 6.908851156644E-02 1.604735354776E-02 3.470958173069E-02 2.739084687303E+00 2.798147349700E+03
 3.310544008345E-02 -5.442863997485E-02 -1.692517985535E-02 1.875113552718E-02 6.631660657782E-02 -1.985907776407E-01 -1.449464223885E-02 8.695480492605E-02 -2.237103071616E-03 1.650313386464E-02 -4.406561439945E-02 -4.131565858073E-01 -1.688761993891E-02 -3.023206167486E-02 -3.721419859806E-01 -3.221827694673E-03 3.537292389424E-02 4.687734045694E+00 -1.332832834259E-02 4.827857400002E-02 -7.371092734538E-02 2.784943817500E-02 -8.527417828580E-02 5.400435750122E-01 -1.679269844462E-01 -1.652591198835E-01 -2.129150005920E-01 2.252499046736E-02 5.818159671058E-02 3.072805773459E-01 2.995470331135E+00 -3.431363390583E+01 1.941063584276E+02
 -1.922820869813E-01 1.208909500960E-01 3.264950189734E-02 -5.162252582882E-02 2.374454228382E-02 -5.114928578807E-02 -2.800325557826E-01 1.874347906482E-01 -4.518249872052E-01 7.863797118763E-04 3.831502719475E-02 6.643119191606E-02 -4.097243644597E-03 5.256860544168E-04 -1.764881153393E-01 1.681699189278E-01 -8.071383375316E-02 2.002111088557E-02 2.773726700845E-01 -2.766387887186E-01 -6.032873976344E-02 4.243093804468E-02 2.996337822271E-02 5.983642264101E-03 1.956960570372E-01 1.348791032459E-01 1.772014399255E-01 2.822650588943E-02 -1.045023814804E-01 9.130289306384E-02 4.112033503287E+01 7.135707939094E+01 -1.253904713597E+00 2.788629990736E+03
 -3.524143003746E-01 -5.904281364992E-02 5.684191940651E-02 -7.163993724641E-02 4.667048747260E-02 -1.823394286779E-02 -5.713714781086E-01 6.650554559277E-01 1.010347388969E-01 -5.437314163066E-02 -2.583535462126E-02 7.456949527312E-02 -4.585008963793E-02 8.737052774609E-02 1.515579962479E-01 2.626699207852E-01 -9.758503814183E-02 1.078821522415E-01 5.001893653109E-01 -1.591582947027E-01 7.951200458387E-04 5.435053681097E-02 6.273771873426E-03 -2.742154290649E-02 1.119060832352E-01 -1.556902579792E-02 2.946701403295E-02 5.535960149693E-02 -1.861345867134E-01 -5.374404803089E-02 -8.654221192445E-01 -1.550491703860E+00 1.028473964686E-01 2.818691642119E+02 2.861349086464E+03
 1.936650605003E-01 6.997020536687E-02 3.518908347977E-01 -1.062036323990E-01 2.230321897663E-01 1.325137578768E-01 7.904040394047E-01 -2.438981968213E-01 -7.287882864450E-01 9.812358790788E-02 3.681473062421E-01 8.755140273109E-01 -9.234320949404E-02 -3.270045914342E-01 9.226608933520E-01 -2.265379763265E-01 -1.370055354099E-02 4.566604658964E-01 -4.549282698622E-01 1.598099005093E-01 -5.161470180490E-02 1.241888393611E-01 -2.923269089861E-01 -5.075930078217E-01 -5.908356635320E-01 -1.229237625488E-01 4.969154058512E-01 -1.820254196732E-01 -6.350578591004E-02 -4.915992090102E-01 -6.002020738522E-02 1.450967248602E-01 1.056127252250E+01 -3.486584925888E+00 -4.198388715473E+01 1.509950157526E+02
 -2.028646971810E+01 -3.464713306013E+01 2.340651650538E-01 3.881520510304E+01 -8.785528345953E-02 5.002831722570E-02 -7.177049992719E-01 4.331856309295E-01 -4.838314578899E-01 -7.555949214958E-02 8.969354316878E-02 -6.475536417361E-02 -1.463465958189E-02 -9.634167473648E-02 -8.756237038257E-02 -1.251858502036E+03 -4.366279771715E+02 2.740796122410E+00 6.761834904831E-01 -1.326126417107E-01 -2.579055941342E-01 5.889040515417E-02 9.121411469164E-03 2.112269392913E-02 1.615017150967E-01 2.327209493403E-01 1.072722946630E-01 2.229502527097E-02 -1.271448556131E-01 6.028824691981E-02 -1.927964097076E+01 3.376639977151E+01 -4.636442570474E-01 -6.321931649929E-02 -1.004417014333E-01 1.029461401048E-02 2.785773053201E+03
 3.426775700570E+01 5.963240920665E+01 -8.517519601774E-01 -6.832017089471E+01 1.938183476606E-01 1.335586442497E-02 -1.498822153669E+00 2.677688440806E+00 6.098389844185E-01 -7.501907142616E-02 -5.192824760570E-01 -7.424419029760E-02 -1.014560342014E-01 7.221310550387E-01 2.852495339012E-01 -4.392575525062E+02 -7.289980132102E+02 8.462417734557E+00 1.140983549752E+00 1.277751299702E-01 -8.779258214920E-02 -3.858896435287E-02 2.105520706750E-01 1.861248401306E-01 -2.069320153421E-01 -9.361237672384E-01 -2.903168532055E-01 2.628498998021E-01 -2.778736854279E-01 -2.012864602685E-02 -3.284125228998E+01 5.718728165491E+01 -9.085973031263E-01 -9.202281144312E-02 -1.368231654355E-01 1.298560358981E-01 1.844056475803E+01 2.801349932453E+03
 -8.629490005024E-01 -1.000547327483E+00 9.640805887888E+00 1.570882976507E+00 5.785184189872E-03 9.168546675192E+00 -2.369870336778E-01 -4.457080595674E-01 1.065891831248E+00 -7.176048406905E-02 1.292156155032E-01 -3.715290586197E-01 3.190588776575E-03 -8.330764723792E-02 9.591642773879E-02 2.312232379754E+00 8.817257137830E+00 -8.360287846605E+01 9.283366173397E-02 -1.826277152357E-02 4.897637478004E+00 -9.730143926922E-02 2.944544625841E-02 4.674681984916E+00 3.532432498926E-01 4.070597239299E-01 -4.047170703892E-01 -3.671678623380E-03 -9.977645949434E-02 -6.052812596400E-02 2.827555950253E-01 -6.057575469009E-01 8.666250978441E+00 -6.687603799770E-02 4.180389705499E-02 -5.434308649671E-02 9.288800672669E+00 -3.665340416195E+01 1.922679479087E+02
 -4.819800676080E-01 1.056330615489E-02 8.716797267657E-02 -1.922496520482E+01 -3.194327370764E+01 4.337780352888E-01 -6.431024092465E-01 1.131708191849E+00 -8.917234324659E-02 -3.031306636887E-02 -4.351456006193E-02 9.868110999435E-02 -7.913550338401E-02 1.668064378710E-01 -1.398500319577E-03 3.658130494104E-01 -2.178348732104E-01 2.729199636279E-01 7.179978896960E-01 -3.852049009659E-01 1.561964954170E-01 7.918658105732E-02 7.078277713029E-02 -3.577386044331E-02 1.706240219268E-01 -1.253863453157E-01 1.472447672960E-01 9.834685774151E-02 -2.463755265732E-01 -3.018141905521E-02 3.957234338421E+01 -6.892928796067E+01 1.417755613651E+00 -2.304026027875E+01 3.997006681842E+01 -5.841742362040E-01 3.976657244319E+01 6.704773445269E+01 -1.240714118312E+00 2.782436729731E+03
 -3.189380056653E-01 -1.188166984676E-01 5.620340451640E-03 3.366495131003E+01 5.635216495395E+01 -9.830808226087E-01 -3.171147297610E-01 7.825190505237E-01 9.183399113292E-02 -3.220420755776E-02 -4.907900381182E-02 -6.953110023951E-02 -3.969833308469E-02 2.111336349518E-01 1.083565693334E-01 9.092050146519E-03 1.532400983414E-01 -3.803149268751E-03 3.423145883731E-01 -5.977209532413E-02 4.431345128929E-02 -4.790415337000E-02 4.789105045342E-02 3.496610231985E-02 -1.394922475546E-01 -3.372568246556E-01 8.936183706963E-03 5.702011248288E-02 -9.907110735111E-02 -1.112633050606E-01 1.532615977203E-01 -1.935353445216E-01 -5.039094901957E-02 -4.273468888288E+01 7.409261552401E+01 -8.916504579378E-01 1.597030749777E-01 -2.071093247226E-01 1.204915016199E-01 -3.290890268840E+01 2.759475548222E+03
 -3.174687823138E-01 1.594957428051E-01 -8.829664117036E-01 -5.595342521882E-01 -1.494579269452E+00 8.265988568738E+00 -2.005799350107E+00 -7.670328003669E-01 4.502114494918E+00 -4.197431124478E-01 -6.509689656688E-01 -1.983497682649E+00 1.782717331043E-01 3.038879688801E-01 -7.100933298910E-01 4.911403404921E-01 -2.352519875736E-01 -9.813070989182E+00 9.450634340676E-01 -3.879555190103E-01 1.090058147450E+00 4.585068785314E-02 7.867976657041E-01 4.817705072038E+00 2.265235067635E+00 1.688812706797E+00 -1.754448900254E+00 3.526891184169E-01 -1.069257857256E-01 1.952673819539E-01 1.554861941769E-01 1.347870201227E-01 9.369750384275E+00 5.413100441935E-01 -1.252914657594E+00 1.097136988922E+01 -1.605245437962E-01 4.436879452734E-01 9.536511126249E+00 2.652316679384E+00 -4.273201746961E+01 1.899121903409E+02
 4.369292459034E-02 -1.494037774078E-01 1.280340782271E-02 1.097209732545E-02 -1.251228865613E-02 5.484917763660E-02 2.253663655259E-02 1.249681430781E-01 3.389550910348E-01 -3.023693205408E-02 -9.556473477407E-02 -2.452393562437E-02 -1.992657290845E-02 7.872733450650E-02 1.488061139354E-01 -4.281469835593E-02 7.275437593775E-02 5.689909089606E-02 -6.030177968809E-02 1.830090082857E-01 4.652929949974E-02 -1.313080385667E-02 -1.752237128947E-02 1.062427162263E-02 -1.437700290990E-01 -2.091625458140E-01 -1.093690319798E-01 2.425855952475E-02 3.765609484621E-02 -6.673292232677E-02 -1.233777210162E+03 4.314665607567E+02 -7.125470238191E+00 -5.051180077258E+02 -1.342481984313E+01 6.437635949723E-03 5.972882918860E-02 5.553853771462E-03 -9.418363035737E-03 -1.277619711855E-02 1.193753375281E-01 2.489005339755E-02 2.842981082749E+03
 3.855378684669E-01 1.770694235225E-01 8.010701355544E-03 2.610371940398E-02 -1.551663399462E-04 -7.121589044653E-03 6.458687370936E-01 -8.214693063028E-01 -1.896058469328E-01 6.692903070020E-02 1.135508120678E-01 6.468247811282E-03 3.842183340961E-02 -1.921059040055E-01 -7.696864602838E-02 -2.914773574269E-01 7.689994531977E-02 2.608267552868E-02 -5.595458936467E-01 7.349186417110E-02 3.692682506680E-02 3.033159335084E-04 -5.298193204665E-02 -9.166611926992E-03 -6.085284531534E-02 1.418416917310E-01 5.822609054998E-02 -9.870675746169E-02 1.649086523127E-01 1.704680573425E-03 4.328370575875E+02 -7.273844045948E+02 9.334849157584E+00 -2.318171210986E+01 -1.535640741225E+03 2.251247963826E+01 6.181348168307E-02 1.417336629361E-01 3.347204297926E-02 1.359394379711E-01 2.159988837596E-02 -1.140365555653E-01 3.288120817420E+01 2.889232758718E+03
 -1.220741667481E-01 -6.574502164137E-02 -1.977662800452E-01 3.026714837742E-02 -1.381489514876E-01 3.369195565452E-02 -4.625545741794E-01 1.338065319224E-01 2.778687957472E-01 -9.593406686239E-02 -2.297421982006E-01 -2.518672757146E-01 5.390508631850E-02 2.296148590975E-01 -3.917368289032E-01 1.824970358863E-01 6.294492882404E-02 -3.980673310456E-01 3.224856605718E-01 -9.585005682087E-02 2.393028316954E-02 -6.983613666429E-02 2.242933340670E-01 -2.118447890499E-02 4.203414076195E-01 1.302429249733E-01 -1.202002316885E-01 1.362135134148E-01 2.821820823343E-02 1.455665304229E-01 -7.592247453465E+00 9.531868310046E+00 -8.516345692040E+01 2.460343558078E-01 2.230369715214E+01 -7.753479422158E+01 -9.932109169379E-03 -2.572658837463E-02 4.496594950781E+00 -5.561198343118E-02 -1.006836615929E-01 -9.593891826810E+00 1.774553000238E+00 -4.036007144052E+01 1.850215395206E+02
 -3.202401270671E-02 -2.142489620188E-01 1.698873829363E-02 -2.559466700387E-02 7.854529860946E-02 2.200814720323E-01 -6.805014182421E-02 1.962438599612E-01 4.451578039784E-01 -4.848268223449E-02 -1.264204213524E-01 -6.442075174898E-03 -2.709638037543E-02 1.187550373369E-01 1.571951943980E-01 -1.964351874749E+01 3.488193514246E+01 -6.361183218211E-01 -4.025405576433E-03 2.269530239096E-01 -1.771022895886E-02 -8.982823307872E-03 -5.208038114529E-02 7.435289798695E-02 -1.212083803318E-01 -1.836245239055E-01 -1.953839943458E-01 6.381155762291E-02 -1.866112462315E-02 -1.005439962347E-02 -1.216394487747E+03 -4.262281625012E+02 4.022225950601E+00 -1.583283463105E-01 -6.858161622890E-03 5.989819986690E-02 -1.180858370280E+03 4.226901903845E+02 -9.768620524554E+00 -4.713023661145E+02 -5.097396163138E+00 -4.932759834548E-01 -1.947622816763E+01 -3.411020821745E+01 4.584210291688E-01 2.753443194832E+03
 3.667773535911E-01 3.553227039174E-01 1.366268079198E-01 -1.769365534002E-01 9.621595318038E-02 -2.203971217858E-01 4.423412799299E-01 -1.111832056788E+00 -6.502346115819E-01 1.861053971845E-02 1.791065511571E-01 1.493913909215E-01 4.930542518193E-02 -2.957034960544E-01 -3.282998048015E-01 -3.331631819842E+01 5.890877757950E+01 -8.569873634265E-01 -3.619776500090E-01 -2.253578869207E-01 4.030259096477E-02 9.221206996141E-02 -4.755408964537E-02 -7.013321494385E-02 3.483098391584E-01 5.459377586620E-01 2.732777583582E-01 -7.327879354783E-02 8.053941956678E-02 1.317689313313E-01 -4.289825459962E+02 -7.147363005875E+02 8.828671965472E+00 9.490012370640E-02 5.595537327714E-02 -3.683426406267E-01 4.248845862259E+02 -7.158915002712E+02 1.105292880406E+01 2.990754311690E+00 -1.495926312484E+03 2.313290023084E+01 3.405238139729E+01 5.941917199633E+01 -5.390051284687E-01 1.951707478465E+00 2.808465188216E+03
 2.867460281446E-01 7.782058154934E-02 5.069474370132E+00 -1.177312944245E-01 2.796855369543E-01 -8.617543558063E+00 1.236361903230E+00 -1.077881182426E-01 -1.845548081047E+00 1.223302252141E-01 4.513366343141E-01 1.582632118030E+00 -1.427016622324E-01 -3.423751457414E-01 1.223168699896E+00 2.146312717782E-01 -6.128484901132E-01 9.620978221943E+00 -5.853216608120E-01 2.734045636491E-01 -2.913337310508E-01 1.315449369324E-01 -3.799320082222E-01 -9.835000566391E-01 -9.959649820893E-01 -4.164432483671E-01 1.058331646435E+00 -1.756411691956E-01 -2.425060127540E-02 -6.894014241728E-01 4.477053933822E+00 8.453798027389E+00 -8.265365045405E+01 4.113674918614E-02 4.853756463160E-02 -9.099684891096E+00 -1.050188833613E+01 1.124867278769E+01 -8.128433255198E+01 -4.888752565155E-01 2.323993352952E+01 -8.472028763229E+01 -4.389377016775E-01 -6.716975257381E-01 9.100560622986E+00 6.433628924576E+00 -4.219511432888E+01 1.933799090668E+02
 3.654397615651E-01 -2.293141711916E-02 -6.669134672820E-02 1.022117757944E-01 -6.367859267328E-02 -9.753769040483E-03 5.416735315213E-01 -6.434182634498E-01 -7.373221677141E-03 4.766436876615E-02 -3.040456852593E-03 -8.729247388242E-02 5.000594334589E-02 -6.339681647282E-02 -7.930295758178E-02 -2.810539930810E-01 9.100607083643E-02 -1.461489551708E-01 -5.243168620768E-01 2.677951366398E-01 -5.249935011963E-02 -8.474070546219E-02 -1.479584787165E-02 2.940612910632E-02 -2.079697556382E-01 -7.341973911617E-02 -8.318781020217E-02 -6.035019360150E-02 2.066870232470E-01 4.262044632349E-02 1.577762986239E-03 6.270063851871E-02 1.095791045628E-01 -1.510289557462E+03 -5.338760832019E+02 7.873257431457E+00 7.822637336269E-02 1.572725520023E-01 4.618211422100E-02 -1.277401158625E+03 4.317585363084E+02 -7.806053528551E+00 4.911568892643E+01 -1.184146688606E+00 -2.997569154473E-02 3.885836975186E+01 5.011743044077E-02 -1.872761407538E-01 3.079266440196E+03
 4.183834595642E-03 -1.411024232690E-01 2.858929782395E-03 -2.137797691308E-02 1.364487658689E-02 1.105978142391E-01 3.587505930881E-02 1.469092918348E-01 2.594258056685E-01 -2.367557023570E-02 -3.654541574741E-02 -9.278834384287E-03 -2.531510231958E-02 3.188472259657E-02 1.508731399126E-01 -1.139319817947E-03 6.140806532903E-02 3.143022311504E-02 -1.021302711763E-02 1.601394131369E-01 2.926165492331E-02 2.147380879982E-03 -3.008525431960E-02 6.595036707203E-03 -1.568231586714E-01 -1.457708373172E-01 -1.021921485586E-01 1.544553657788E-02 9.209114170247E-03 -6.447214412461E-02 -1.245170829992E-01 2.545595268096E-03 7.106058050258E-03 -5.444158862131E+02 -8.758804934900E+02 1.269655515286E+01 4.602642917910E-02 -1.705255938342E-02 1.038735157930E-01 4.169349353269E+02 -7.209760895162E+02 1.078900257990E+01 -8.593224018485E+01 1.933040866838E+00 -4.010871440021E-03 7.193794525860E+01 -4.432672819387E-02 2.349652242030E-01 9.731831572894E+01 2.543590359109E+03
 1.844102444381E-01 -1.143197148824E-01 4.487586857587E-01 -1.542869102201E-02 2.340698589412E-01 4.653235081092E+00 1.033430270104E+00 4.753662960925E-01 -2.744446410648E+00 1.887499362669E-01 2.244688729648E-01 1.261799130524E+00 -9.345667739254E-02 -8.544319922515E-02 3.263793952228E-01 -2.538917083158E-01 2.507452460041E-02 2.335461546259E-01 -4.129988436595E-01 2.013442722894E-01 -6.650984067130E-01 -5.954278413896E-03 -2.282545281389E-01 -5.261905697357E-01 -1.143479590342E+00 -8.862772927690E-01 1.132441141455E+00 -8.890962890595E-02 1.118071901543E-01 -1.319705628696E-01 -5.775102253838E-02 -2.304811335917E-01 -1.044128556034E+01 8.217081421586E+00 1.264384420582E+01 -6.996889637114E+01 9.643969066045E-02 7.128369642666E-02 4.291089864175E+00 -7.588909691349E+00 1.085308375491E+01 -7.824222830289E+01 1.364828340852E+00 1.493975534068E-01 1.048824817064E+01 -1.199567292792E+00 1.097653057288E-01 1.088133238474E+01 1.672643057414E-01 -3.820744882979E+01 1.527663735202E+02
 4.663112172120E-01 5.436328651166E-02 -6.372330542409E-02 -1.227957634416E+03 4.462389911073E+02 -1.167976604038E+01 9.176950521740E-01 -9.585576244036E-01 3.972644636656E-01 9.685022545936E-02 2.219785303335E-01 -3.375930941144E-01 2.904032393341E-02 -3.235424172513E-01 2.898955249131E-01 3.949672815395E+01 4.639748604756E-04 3.507043288258E-01 -8.251254241517E-01 4.590815409738E-01 -2.964077102578E-02 -1.997090938914E+01 3.552993632725E+01 -6.819845491069E-01 -5.920631974293E-01 -4.296477923832E-02 -3.036910384135E-01 -1.873305765653E-01 2.399228470111E-01 -1.218871673263E-01 -3.807652121885E-02 -8.381007245372E-02 -1.811689252233E-02 1.151976021216E-01 1.977612113032E-01 2.165921749610E-01 1.252767537389E-01 1.985596687442E-01 1.769982738814E-01 -1.149441185299E+03 -3.953780975866E+02 4.700536285222E+00 -2.857176216144E-02 -1.248495491541E-01 -1.768679772969E-01 3.718464487159E+01 -8.649649741530E-02 1.201001960130E-01 -1.801967479064E+01 -3.291962783565E+01 5.526250205764E-01 2.738514086567E+03
 3.299717684558E-01 3.788490806214E-02 2.218510244913E-02 4.543406298810E+02 -7.402428940399E+02 1.381706559491E+01 4.398135618908E-01 -8.207131970238E-01 -2.314614359499E-01 6.405373189988E-03 -8.130668002301E-02 2.346817936564E-01 5.257854076385E-02 -7.768027760860E-02 -1.216021408488E-01 6.695100398049E+01 -3.691387158581E-01 3.136656250618E-02 -4.001095025903E-01 2.149528680430E-01 -7.877863879679E-02 -3.340138593764E+01 5.946603349467E+01 -7.695290078114E-01 9.325352420137E-02 1.579429054245E-01 2.343381601225E-02 -2.085865414693E-02 1.633849210776E-01 2.089748830403E-01 4.397361587965E-02 9.118901341759E-02 6.634081007249E-02 1.731660835662E-02 3.965862711167E-02 -1.134087635547E-01 -1.193016377285E-01 2.981984651001E-01 -3.336622118590E-02 -3.927764414353E+02 -6.776177733461E+02 1.060882965468E+01 -1.799181393664E-02 -1.176358649420E-01 1.085224898342E-01 -6.561294238945E+01 -8.602985348014E-02 -2.434435132292E-01 3.138255601797E+01 5.805444605871E+01 -8.410621547532E-01 -5.664700642600E+00 2.804341804040E+03
 -4.615800268919E-02 5.766869481801E-02 4.660520188468E+00 -1.171378916395E+01 1.346277565289E+01 -8.314331502092E+01 2.495989197303E-01 5.151869497447E-01 -1.380641478189E+00 2.508264579582E-01 8.780941099380E-02 4.149396750205E+00 6.250035980471E-03 4.824095350017E-03 -1.024469280438E+00 -1.036643538929E+00 1.443056194410E-01 9.317990199059E+00 -1.801543136196E-01 -4.744130027624E-02 -5.506673508766E-01 2.254030741103E-01 -7.175376886441E-01 1.050758334875E+01 -6.761536834771E-01 -7.321039254299E-01 2.611317717582E-02 -3.685421631395E-02 2.202266274427E-01 7.905041725611E-01 1.727796811170E-01 1.042661370026E-01 5.109442796014E+00 4.950558055680E-02 1.004214180316E-01 4.950599499934E+00 1.381538147690E-01 -3.951216737863E-01 -9.139957566746E+00 5.408296592842E+00 9.985624735211E+00 -8.214097758254E+01 -6.438331414164E-02 -1.140717854741E-01 -6.785683541953E-02 8.961175809707E-01 4.114342882373E-01 7.284830681805E+00 -3.569014969828E-01 -8.324790514387E-01 9.782894237734E+00 6.767466535278E+00 -5.333366914115E+01 1.894673567831E+02