#BIOSYM hessian 1
@Type: Hessian Update
@Units
 distance: 	A
 energy: 	Kcal/Mol
#header
@natom 67

#label
C1      C2      C3      C4      C5      C6      C7      C8      C9      C10     C11     C12     C13     C14     C15     C16     C17     C18     C19     C20     C21     C22     C23     H24     C25     C26     C27     C28     C29     C30     C31     C32     C33     C34     C35     C36     C37     C38     C39     C40     C41     C42     C43     C44     C45     C46     C47     C48     C49     H50     H51     H52     H53     H54     H55     H56     H57     H58     H59     H60     H61     H62     H63     H64     H65     H66     O67

#element
C  C  C  C  C  C  C  C  C  C  C  C  C  C  C  C  C  C  C  C  C  C  C  H  C  C  C  C  C  C  C  C  C  C  C  C  C  C  C  C  C  C  C  C  C  C  C  C  C  H  H  H  H  H  H  H  H  H  H  H  H  H  H  H  H  H  O 

#matrix
201
 2.780690782722E+03
 -1.417794142943E+01 2.800395023898E+03
 3.580450324290E+01 2.026914277012E+01 1.954910362067E+02
 3.950756174881E+01 6.647844018597E+01 -9.371606340026E-01 2.795978156224E+03
 -7.652828403354E-01 -7.113513752032E-01 -4.739245834331E-01 -2.017288504430E+01 2.763982662645E+03
 -5.116817835451E-01 9.079517668540E-01 9.665922404661E+00 8.554423976082E+00 -4.264920006101E+01 1.917114050488E+02
 -2.526446038827E+01 3.382906998522E+01 3.821720430450E+00 -1.560305057824E+00 -2.335461592448E-01 6.196274072402E-01 2.669946238770E+03
 -3.868566201055E+01 5.853421631945E+01 6.625749388702E-01 -4.710821813513E-01 1.485181647162E-02 -1.948061072560E-01 -6.547563246726E+01 2.706471849507E+03
 -3.739660029603E+00 -2.705352882507E+00 1.031836066636E+01 1.959596444664E+00 4.749634415143E-01 2.512095770386E-01 3.401763300848E+01 9.403457190895E+01 3.339234842658E+02
 3.939149467493E+01 -6.552310127261E+01 2.090015549558E+00 -1.882938329342E+01 3.538251215545E+01 -1.285856813321E+00 7.861823011877E+01 8.585205885498E+01 5.481043210597E-01 2.763241183429E+03
 -1.414945091951E+00 -2.491796163827E+00 -7.989406257432E-01 -3.064171979018E+01 5.894165016136E+01 -2.610597012984E+00 8.585735827200E+00 7.160524486280E+00 -6.301383322541E+00 7.354433252177E+00 2.811023963855E+03
 2.427032302025E+00 -1.100240686534E+00 1.133925806504E+00 -5.571534099632E-01 2.100411969631E-01 7.780487008154E+00 -5.470063518807E+00 4.463143909508E-01 4.736159318233E+00 2.515458238427E+01 -7.184329821757E+01 2.199482464004E+02
 1.446263615629E+01 7.726651295197E+00 2.319045609311E+00 -4.118074149233E+00 2.918628938183E-01 7.879781903017E-01 2.313436243441E+02 -3.876181207156E+00 -1.828648167440E+01 -6.485281925103E+01 5.497082983291E+01 -9.363147738943E+00 2.683151965257E+03
 4.750560311214E+00 -3.371346784852E+00 3.675795821750E+00 8.546442327361E+00 -5.733546868840E+00 -7.023032528944E-02 1.286710054318E+02 5.755318212675E+01 2.532556750177E+01 -6.502894798561E+01 2.567036706011E+01 1.665057004712E+00 -5.067932139808E+02 3.266723820007E+03
 -4.321844505143E+00 4.222292733373E+00 -1.280421447164E+00 -6.968330202611E+00 7.814476816384E+00 -8.335005526430E-01 -1.916260599537E+02 -6.856700857433E+01 -4.581695772621E+01 4.301946524162E+01 6.200797913629E+01 1.888248753554E+01 9.595809289371E+01 -8.371528692910E+02 1.892013034146E+03
 -1.217326095861E+03 4.414615794711E+02 -1.078606036453E+01 -4.627047693161E+02 -4.951381237542E+00 -2.466948759309E+00 -2.908253848885E+00 -8.481130899474E-01 -4.677617020680E-02 -2.184390220580E-01 8.881669941879E-01 -6.264297425793E-01 -4.533703053798E-02 4.465122276700E+00 -6.824136476961E+00 2.815099725695E+03
 4.348767191369E+02 -7.303521019782E+02 4.063284280576E+00 -2.846337248170E+00 -1.431276920516E+03 1.694701239463E+01 2.590373549398E+00 2.041593998261E+00 1.091453220410E+00 -1.043803725610E+00 9.381985089813E-01 -9.401472929525E-01 -4.155131095808E+00 3.741956127155E+00 -1.208594451568E+00 3.047904927497E+00 2.770347958402E+03
 -1.556668365076E+01 4.091366757132E+00 -8.044698523570E+01 -1.223294863980E+00 1.371132355781E+01 -8.006409010387E+01 1.871541635067E+00 1.812402688395E-01 5.296271621249E+00 -4.151617917098E-02 1.258921791991E-01 -1.198749233123E+01 1.523974291863E+00 1.150516369174E+00 -1.234535952141E+00 2.673434656852E+01 -1.681758022524E+01 1.932070195333E+02
 -1.202585442776E+03 -4.123051739698E+02 -2.258548138462E+01 -4.080856717504E-01 9.799935254784E-02 -1.660428225788E-01 -1.192558725396E+03 4.618067119366E+02 -5.632135085502E+00 -4.629415544322E+02 -5.988186063082E+00 -2.235950863397E+00 -4.102780143314E+01 -3.371117634838E+01 3.184676539118E+01 -1.774043021851E+01 -3.376269480414E+01 -3.171754200033E-01 2.760668596541E+03
 -4.065377006657E+02 -6.865158721022E+02 -8.764923308760E+00 -2.018456575100E+00 8.542358314524E-01 -7.017985649036E-01 4.431912274673E+02 -7.597295793519E+02 1.230974822573E+01 -2.979680005486E+00 -1.452722869663E+03 2.411835278237E+01 -2.399153376925E+01 4.313993207095E+01 -5.502544444017E+01 3.251870320209E+01 5.766342199285E+01 1.100293047508E+00 -2.832388827626E+01 2.777402391200E+03
 -1.513755761297E+01 -6.195327019257E+00 -8.803722170628E+01 -2.202555164323E+00 1.000756763337E+00 -1.046196976106E+01 -1.133118436919E+01 5.302464030503E-01 -1.056846819798E+02 -3.492769846945E+00 1.834153630633E+01 -6.329167944584E+01 -1.463463902412E+01 -8.260364214695E+00 2.215792221637E+00 -4.521427519863E-01 -1.296856963909E+00 4.962108052695E+00 2.615066015058E+01 -1.446112161113E+01 2.196563538546E+02
 -3.186864219607E+00 -1.543372703483E+00 -7.456288042558E-01 -1.221458752956E+03 -4.232011337087E+02 2.466393219675E+00 -1.251339552439E+01 -8.860478434934E+00 -4.139364073837E+00 -1.217799413809E+03 4.256506678222E+02 -2.530979666640E+01 3.012477596422E+01 4.206732231118E+00 -2.773849855137E+00 3.781564159841E+01 7.542633116624E-01 -1.544081606897E+00 4.186592738077E+01 4.048112278877E+00 5.254824513467E+00 2.800601244275E+03
 1.498254995657E+00 1.624190726161E+00 1.643358829980E+00 -4.271425043905E+02 -7.061904984411E+02 1.575237781300E+01 2.073833430841E+00 1.182663163740E+00 1.546564780156E+00 4.326199451353E+02 -7.186781556026E+02 2.399815081741E+01 -1.416412260674E+01 3.720533340067E+00 -9.423302898093E+00 -6.655154530261E+01 -5.213381960839E-01 4.690362804049E-01 6.674798330011E+01 -4.106289577300E+00 -4.119717268980E-01 4.769516582565E+00 2.786799111234E+03
 7.040829544114E-03 -1.445576306970E+00 -7.610905169855E+00 6.981498646340E+00 1.465198135593E+01 -8.227419416849E+01 7.383627755325E+00 3.337083549222E+00 6.972791450776E+00 -3.601867617525E+01 2.949537683911E+01 -8.917203798672E+01 -4.638665894366E+00 2.275955941617E+00 6.957919319165E+00 -8.970272202864E-02 4.433857754789E-01 8.941969213067E+00 -1.022191929917E+00 9.609383591254E-03 1.759991958554E+00 2.573049942278E+01 -9.978171381042E+01 2.002177093567E+02
 5.248555800454E+00 2.869021403140E+00 -4.089432880878E+00 -2.287870595637E+00 8.246544890414E-02 -7.864001809879E-01 -1.185325836600E+03 -3.277789693442E+02 6.639923039082E+01 -3.444482104619E+01 5.933185362885E+00 5.484755986211E+00 -6.730427650438E+02 -6.110786855665E+01 2.526640694110E+02 2.648570262363E+00 -3.327205598415E+00 -2.025717437314E+00 -4.006240409719E+01 -4.682470717276E+01 5.351921484361E+00 1.233085589618E+01 -3.598711777786E+00 -7.154229315367E+00 2.882141942788E+03
 3.792621037973E+00 7.031671848217E+00 -7.615248073564E-01 -1.153722706817E+01 6.370576261092E+00 8.589766918067E-01 -4.761348584722E+02 -7.722607951922E+02 -2.151193180265E+01 8.273906483800E+00 6.062994696979E+01 -5.431793504099E+00 -3.072132234542E+01 -1.318607469534E+03 -3.571581562759E+02 -5.995337958399E+00 -6.087592572353E+00 1.066424089433E+00 5.393866763310E+01 6.623574206929E+00 -1.532781240450E+01 1.132359646152E+01 -1.402196226400E+01 -2.643111339071E+00 4.044839967247E+02 3.207810050572E+03
 1.181379533860E+01 1.672459240583E+01 1.201316554786E+01 -1.593843496753E+01 4.098153037711E+00 1.263736695062E+00 -3.414823979092E+01 -1.315394539472E+02 -2.182399952518E+02 -7.296382868147E+00 8.344337777900E+01 -2.574121403208E+01 7.627749418264E+01 4.038012971016E+02 -2.427299162061E+02 -4.862862347542E+00 -8.665412092207E+00 4.069959024230E+00 2.509763774565E+01 -9.150030281362E+01 -1.024425732662E+01 2.347442909903E+01 -1.845381326431E+01 5.355823418107E+00 -9.787970979224E+01 7.626610874690E+02 1.887828730137E+03
 -4.601733541732E+00 5.441550056291E-01 2.548447949672E+00 -1.263024692746E+00 6.410580449187E-01 5.743197640784E-01 -1.499779789532E+02 -5.708795478499E+01 1.286072037687E+01 -1.179866354567E+03 -4.272281407174E+02 -1.050787559308E+00 -1.172847690039E+03 5.326611302753E+02 -1.567726130286E+02 -4.014972632583E+00 2.866747173988E+00 1.469013630526E+00 7.173128106635E+01 -7.015986871601E+00 -2.516278189640E+00 -2.990633373418E+01 -3.486104941002E+01 8.327527082592E+00 1.553544718917E+02 -4.692541127109E+01 -7.812011178055E+01 2.743314982120E+03
 -2.538429869970E+00 -5.125356837060E+00 -2.051315745003E+00 3.697238033188E+00 1.591463855474E-01 -8.252396436989E-03 6.896143928391E+00 -1.451286472542E-01 -2.285776386188E+01 -4.424103854619E+02 -7.733446407638E+02 3.074186140618E+01 4.144502407897E+02 -7.816565088670E+02 1.758319084161E+02 2.269223680000E+00 -4.527557930812E-01 -1.370625974141E+00 -7.296160763990E+01 1.981182967953E+01 7.491331300300E+00 2.788967391470E+01 6.643573314763E+01 -3.908710340270E+00 9.505447070562E+01 3.595978832134E+01 6.377471912720E+01 9.163067001461E+00 2.825257725083E+03
 1.489176666889E+00 1.559429511518E+00 7.731981363949E+00 -1.493247482814E+00 -1.163521641654E+00 5.177142647961E+00 3.820377283060E+01 2.643385442114E+01 -9.317287664683E+00 1.679289314002E+00 2.036745893319E+01 -1.140309259708E+02 2.894358566025E+00 3.852217304964E+01 -2.196009795531E+02 1.337567815621E+00 -1.523507049768E+00 1.342594288485E+00 -4.820788000155E+00 1.796702939193E+00 -3.616453058597E+00 3.876009263013E-01 -6.072393722485E-01 1.271427174253E+01 -5.886401097701E+01 -2.618510755855E+01 -5.304315556892E+01 6.464267775035E+01 -2.326318513311E+02 3.449876694656E+02
 1.194490571235E-02 5.869900862428E-02 5.949667914743E-02 -1.753675713802E-02 2.503216965042E-02 -1.230230081201E-01 -1.451279383130E+00 -7.882315858656E-01 -2.021407396247E-01 2.834153076388E-01 1.352360248378E-01 -6.792051261406E-02 1.582704137996E+00 2.090614967192E+00 -1.685803628932E+00 -4.169722006602E-02 -4.482432070274E-02 -2.323458477785E-01 2.654390173690E-01 -1.980548290350E-02 -3.700251607767E-02 -9.593097190853E-02 5.491722179698E-03 5.014264019738E-02 7.563414139169E-01 -1.510730205643E+00 -8.480469032248E-01 -1.125732210968E+00 1.016877207136E-01 3.947328762068E-02 2.803735370621E+03
 -2.904799372267E-02 7.973180278118E-02 -9.650204000813E-02 6.202250440266E-02 -4.430785247366E-02 1.962194707148E-01 2.825811047239E-01 -6.368754107257E-01 -1.594403425055E-01 -1.097871989478E-03 -2.878212084615E-01 1.490873847255E-02 6.741291175570E-01 -2.190611402966E-01 -8.098781653238E-01 5.312895422284E-02 -8.088042766249E-02 2.888454788232E-01 3.678306192083E-02 1.066538627365E-01 7.457116706416E-02 -2.505111825752E-02 1.068443735106E-01 3.210001423489E-01 2.616973220199E-01 6.695797164052E-01 1.275031116044E+00 -3.432297696911E-02 1.682690969138E-01 2.716212125075E-01 4.058814645480E+00 2.798323329838E+03
 -3.597856677824E-02 -1.172823298235E-01 6.274502590279E-01 3.036153122934E-02 1.246324089069E-01 1.621896477125E-01 6.946836272822E-01 1.383627816370E-01 2.662466230340E-01 -1.566913167360E-01 -1.700037678978E-01 -1.029910727761E+00 1.145221138942E-01 1.759542384999E-01 -1.698418945614E-01 1.359120007098E-01 -2.352065357009E-02 4.892348916568E+00 -6.972391255038E-03 1.980891812803E-01 -1.192343521515E+00 -3.683317485829E-02 5.580229376557E-02 1.597387752803E-01 -7.749300299463E-01 3.195497151242E-01 1.166322443066E+00 6.339092135960E-01 -3.420073732520E-01 4.777955472949E-01 4.405888776896E+00 1.111890444433E+01 1.934668503790E+02
 1.961515429686E-01 3.297457811341E-02 2.365173750477E-01 3.475653474650E-02 -3.786892096394E-02 -3.407863154391E-02 1.202427242581E+00 1.319980666604E+00 5.225531834485E-01 -2.900215033969E-01 -1.507775052869E-02 -1.112417726264E-01 -2.512332064284E+00 -4.859683327390E+00 4.593859714862E+00 -6.765267938805E-02 7.027556587157E-02 3.449616689853E-02 -3.362810718076E-01 9.926517513143E-02 -2.408923523248E-01 2.247169668351E-01 -1.637464041137E-01 -2.750452130377E-01 -7.557458899352E-01 3.937721062295E+00 1.626048809774E+00 1.147519272429E+00 1.566485630699E-01 -2.780263577673E-01 4.128650821656E+01 7.126166002061E+01 1.347523770983E-01 2.790249843630E+03
 1.887449131416E-01 1.040111138750E-01 8.816090346132E-02 2.297581412225E-02 -5.466003978848E-02 -3.260946707732E-02 2.241343194776E+00 1.391430741769E+00 7.514308409626E-01 -4.943117058103E-01 -2.614754076963E-01 -3.165687463302E-01 -2.888437547382E+00 -6.522707186615E+00 5.068243818042E+00 5.528510009392E-04 1.838638467063E-02 7.857424080370E-03 -4.774677897361E-01 2.153192319613E-01 -4.342937774256E-01 2.822812682381E-01 -1.281353295359E-01 9.432208115987E-02 -1.015232403477E+00 5.724400863733E+00 3.208731356119E+00 1.747835759495E+00 2.086942923274E-01 1.402556947655E-01 -9.606179148744E-01 -1.712233099473E+00 3.301749096678E-02 2.818241917489E+02 2.860516029032E+03
 -3.963044543541E-01 -3.870652348182E-01 3.918921229122E+00 4.621707633115E-01 -1.047168465946E-01 1.132235629715E+00 2.808569933167E+00 2.859229063339E-01 1.019177121010E+00 -4.038390707638E-01 -1.359986727753E+00 -5.027223940519E+00 2.338195992784E+00 1.640978504117E+00 -1.948092626850E+00 2.379762442295E-01 3.540764590279E-02 2.418853123276E+00 -1.392747248307E-01 1.106030197438E+00 -5.952120652331E+00 -5.462223331960E-01 5.371285950558E-01 -5.026607321821E-02 -3.601079116332E+00 1.917876742148E+00 6.499342933022E+00 2.632540737077E+00 -1.931987567158E+00 1.891413901396E+00 3.442571314742E-01 -8.269281105895E-02 1.146701137838E+01 -6.708463231116E+00 1.264764657684E+01 1.538772072554E+02
 -1.961839421006E+01 -3.360367102937E+01 -5.609281777657E-01 3.882474632719E+01 -2.113988591711E-01 1.281075075958E+00 9.129716185922E-02 -1.041230844926E+00 -2.730754158934E-01 -7.723116821706E-02 -1.007571124740E-01 7.278238043243E-02 -6.801735946063E-01 -1.791552771926E+00 8.795362000080E-01 -1.254009494209E+03 -4.361742617905E+02 -1.055115230404E+01 -8.239480665784E-02 3.206861433368E-01 4.336798621920E-02 2.898228036731E-01 -2.051140926720E-01 3.763058711652E-01 -2.799946193584E-01 1.596204635806E+00 1.270107967731E-01 5.028016399631E-01 7.886638328205E-01 -3.343153227209E-01 -1.928218728550E+01 3.435070617531E+01 -1.234305873428E-01 -1.049028162422E-01 1.915108836444E-02 -1.872833884319E-01 2.786901518309E+03
 3.563489323156E+01 6.049941952158E+01 2.230795278214E-01 -6.770050872460E+01 -5.223849615117E-02 -1.003300740375E+00 2.214008027601E+00 1.916659297983E-03 -8.139661128857E-01 -8.747106292294E-02 -2.201838139288E+00 5.870281225281E-01 3.254809553092E+00 -1.021909085737E+01 7.614496839141E+00 -4.389647617349E+02 -7.259007042938E+02 -3.622198053478E+00 -3.447329048206E-01 2.064681907284E+00 9.749195257675E-01 -7.857849545039E-01 8.180625139628E-01 3.649954485025E-01 1.157840145556E+00 1.346018461650E+01 1.507237019784E+01 1.903093103231E+00 -2.490773991708E+00 9.522455486528E-01 -3.232647913621E+01 5.751007680328E+01 -2.704904115583E-01 -1.491437980595E-01 -5.952060402475E-02 -3.557539606267E-01 2.385419235524E+01 2.798913694907E+03
 -9.103437488950E-02 -5.532002123927E-01 9.348284068292E+00 1.527561927331E+00 -3.965033044021E-02 9.055830073078E+00 -9.228279433435E-01 -6.151690557228E-01 -5.395125337704E-01 -3.399984776571E-02 5.898551486538E-02 1.335674553201E+00 6.803845538042E-01 -2.909510961333E-02 -4.174510763609E-01 -1.316405998749E+01 -3.591911056950E+00 -8.355825761172E+01 3.828225706468E-01 1.770820980843E-01 6.088182268507E+00 -3.096281918150E-02 -3.458705236669E-01 3.810680218917E+00 1.067167497906E+00 3.081132232016E-01 -7.769718086474E-01 -6.200836448943E-01 5.848540880357E-02 -8.646188147535E-01 -1.754356094482E-01 -4.679939205156E-03 8.626350473912E+00 7.853139703991E-02 5.534979589064E-02 -6.369566477303E-03 1.921180809017E+01 9.431977451327E+00 1.917358692387E+02
 2.439424683046E-01 -7.502665941066E-02 -3.700400618179E-04 -1.887592735161E+01 -3.197356954788E+01 -1.606067860610E-02 4.902066710763E+00 3.464699132541E+00 4.843416479698E-01 -1.249053264846E+00 -5.785722872792E-01 -1.038844936288E-01 -6.164946140979E+00 -1.150638085942E+01 1.185882981757E+01 -5.940756028565E-02 7.468128439595E-02 -2.569708366451E-01 -1.399754715597E+00 6.520596171266E-01 -2.884757591078E-01 3.880729810002E-01 -1.057751621292E-01 -5.241625766741E-01 -2.805392468173E+00 9.451373397748E+00 6.229754555913E+00 4.631549023006E+00 -6.580898859792E-01 -9.822213546694E-01 3.948580279672E+01 -6.901630590859E+01 4.247148465863E-01 -2.312043807247E+01 4.012871126211E+01 -1.975430357425E-03 3.979155846736E+01 6.710777709317E+01 -4.554515364873E-01 2.782649593438E+03
 1.714105878461E-01 -5.165299307997E-02 5.206879861407E-01 3.388782845559E+01 5.667535101957E+01 -3.354592851170E-01 -6.002544641110E-01 -3.566838158865E-01 4.017044738718E-01 3.000600578002E-01 -2.193863031852E-01 1.031353680496E-01 6.625016280758E-01 -4.303499467203E+00 3.516064950465E+00 3.308722290309E-02 3.311050022355E-01 4.032627280604E-01 1.022599827161E-01 4.278853146238E-01 -3.816503462449E-02 3.945954397826E-02 -2.144612167670E-01 -1.276297198812E-02 8.880150204584E-01 4.865781136922E+00 3.073880014983E+00 -3.961323964163E-01 3.913367499045E-01 -1.298333569733E-01 3.355887434419E-02 4.660289546981E-02 -2.723183259464E-01 -4.253024485274E+01 7.405101200792E+01 5.749079625074E-01 -2.553142442362E-01 -4.797920212081E-01 9.238967919873E-02 -3.379821788199E+01 2.760070465095E+03
 3.613352158570E-01 -5.507069572944E-02 -5.790092832194E-02 -1.863972128416E-01 -1.671493545736E+00 8.377512629584E+00 -1.155510578257E+00 -1.269610444280E+00 -3.836144108189E-01 2.462926741494E-01 -7.777283974847E-01 6.930079045102E-01 2.355386198507E+00 5.585639093435E-01 -1.607069715882E+00 -5.366485013772E-01 -5.476886442910E-01 -8.914240644530E+00 1.404217110943E-01 5.798953891896E-01 7.802474077910E-01 4.580148573938E-01 6.426098150514E-01 3.935182259104E+00 1.018378016138E+00 6.640088973329E-01 2.415540120849E-01 -6.986290198935E-01 5.355878300756E-02 -1.584071112926E-01 2.471148305567E-01 -8.547896128829E-01 9.451234481161E+00 1.551356219613E-01 3.135590981173E-01 1.245055906165E+01 -1.607814277533E-01 9.161806738823E-01 9.176180129728E+00 -1.621392684539E+01 -9.765890226871E+00 1.854578297521E+02
 -8.269074355531E-02 -1.291831121626E-02 -1.565287005099E-01 -7.162277187203E-02 4.937462715902E-03 6.335529236392E-02 4.696501070326E-01 -1.023263987944E-01 -2.231305341956E-01 -1.360667114126E-01 -1.197967695066E-02 -3.711638253456E-02 -1.710797924946E-01 1.435824588492E+00 -1.255982584708E+00 8.005007306432E-02 -2.969839503776E-02 3.571345644202E-02 -1.956481418863E-02 -9.141988802319E-02 1.196746527435E-02 2.790013622108E-02 4.213456837554E-02 1.373393893797E-01 -3.492955406530E-01 -1.588397895471E+00 -6.752501663076E-01 3.289966818324E-01 -7.773834252322E-02 3.566300066512E-03 -1.231268597126E+03 4.329964389013E+02 -2.152043125901E-01 -5.052118967571E+02 -1.596214286941E+01 -2.613630834804E-01 -2.150579080360E-02 6.268960851987E-02 -1.592814022198E-01 1.413094367928E-02 1.898280160780E-01 -2.506280619330E-01 2.843528032233E+03
 -4.222316508232E-02 -5.709563184886E-02 1.301486611827E-01 -6.398234342847E-02 7.714340505945E-02 5.179284014032E-03 -2.009384994075E+00 -8.151542634188E-01 -3.072598024524E-01 4.418889306044E-01 6.403166951729E-01 1.270939372021E-01 1.281448480191E+00 6.501355745521E+00 -4.871029474154E+00 -7.250362784754E-02 2.055809371470E-02 3.924819761628E-02 4.398167799663E-01 -5.133827363678E-01 1.223542825022E-01 -1.054688138917E-01 -4.456740179854E-02 -2.145925128904E-01 3.362261836084E-01 -6.577766047019E+00 -5.146186228363E+00 -1.531327420328E+00 2.733855893576E-01 -2.539227804060E-01 4.342682274230E+02 -7.298787025772E+02 -2.411671054236E+00 -2.570302119403E+01 -1.535859767043E+03 -7.470013253260E+00 -9.301570938811E-02 -5.188190405441E-02 1.980633495312E-02 1.612295072745E-01 -6.603922684699E-03 3.368707450926E-02 3.244424534485E+01 2.889176430948E+03
 3.829773073490E-01 4.364148037580E-01 -4.132978867658E+00 -6.253425011240E-01 1.531003288714E-01 -1.137362761300E+00 -3.172138443979E+00 -4.117845236586E-01 -1.352457935840E+00 3.797625718525E-01 1.408293317200E+00 6.033009571641E+00 -2.971997745260E+00 -2.029251839575E+00 2.039809457157E+00 -1.706221790895E-01 5.485005715651E-02 -2.438491231430E+00 2.266743575284E-01 -1.243851121742E+00 7.029402431682E+00 7.681417937259E-01 -7.398323744448E-01 -5.105283167169E-01 3.957380459470E+00 -2.086599790442E+00 -7.925430010034E+00 -2.881805693699E+00 2.500870706401E+00 -2.792246620592E+00 -7.120573734274E-01 -1.957681435544E+00 -8.561326342200E+01 2.509951491686E-01 -7.892505175596E+00 -8.114801420255E+01 1.534149141882E-01 2.806882677603E-01 4.618468573752E+00 5.278638595243E-02 6.512370436149E-02 -1.050599928016E+01 4.902189038184E+00 1.388562050075E+01 1.885962936349E+02
 -2.131897312038E-01 -4.799573698708E-02 -2.098488844993E-01 -9.537875520011E-02 -1.419962290696E-01 1.080025998117E-01 9.434274336904E-01 1.592929094210E-01 -1.642680843095E-02 -2.458111740100E-01 -5.081615127988E-01 -7.932183836596E-02 4.734801185671E-01 -1.704467153417E+00 6.722740982930E-01 -1.948185329447E+01 3.487417385958E+01 1.674853742460E-01 -3.006204001761E-02 2.304592495416E-01 1.304918619154E-02 -1.329320737724E-01 2.743439925203E-01 2.760392358409E-01 1.935807928912E-01 2.224257181273E+00 3.137013340568E+00 3.940304357354E-01 -4.462572670657E-01 6.291909580639E-01 -1.218755534821E+03 -4.249343307127E+02 -3.949040411402E+00 -1.278091377653E-01 1.459047020973E-03 1.143790433974E-01 -1.179693606400E+03 4.234431081938E+02 -5.195185662995E+00 -4.717130817064E+02 -7.390948781932E+00 1.121717934967E+00 -1.946630660858E+01 -3.386655827927E+01 -3.154680582806E-02 2.755343021577E+03
 2.873706266763E-01 8.292816232881E-03 -1.065959937839E-01 -5.564295146012E-01 3.230722356628E-01 -9.507973938985E-01 1.028292386088E+00 1.946249900717E+00 3.273350514823E-01 -6.048865472354E-01 1.277893882977E+00 -4.327476025228E-02 -6.067748522208E+00 1.718308243197E+00 5.441324853539E-01 -3.326662742370E+01 5.907268310248E+01 -4.664947428690E-01 -2.808641293028E-01 -1.246267013539E+00 -1.677353362996E-01 7.631979322909E-01 -5.909163652754E-01 -6.890896702699E-01 -1.989736253262E+00 -5.688121617732E+00 -7.725053918264E+00 9.802885530285E-01 1.347635803494E+00 -1.269171805378E+00 -4.278856912274E+02 -7.125907182945E+02 -1.511127753065E+00 1.314259702498E-01 3.057087079483E-02 3.826513899632E-01 4.254288843023E+02 -7.163923403826E+02 1.409271960657E+00 4.126920522828E-01 -1.496153287088E+03 3.628630219249E+00 3.420496179532E+01 5.950657425960E+01 -1.744153225132E-02 2.667339869767E+00 2.807109288851E+03
 -4.067205188907E-02 -5.461850239650E-02 5.216809633373E+00 -2.258733649918E-03 5.776905509773E-01 -8.668725271081E+00 3.255392340337E-01 -2.389250740374E-01 1.541411961972E-02 -1.236977318676E-01 -2.987885417992E-01 -5.822588710995E-01 7.235350952159E-01 3.202196962927E-01 -5.919527522843E-01 1.386767277880E-01 5.200943387480E-01 9.557553573022E+00 8.524385623329E-02 3.293368332801E-01 -7.053683347406E-01 -8.988514018038E-02 -6.057586698524E-02 -2.135105376985E-01 -4.411566569590E-01 4.866139648914E-01 1.057752146760E+00 4.288327679868E-01 -3.902008034776E-01 1.497357897426E-01 -3.321308356209E+00 -1.791055245885E+00 -8.202654865138E+01 1.074843179482E-01 -1.722359655269E-01 -9.591804018877E+00 -6.354840423731E+00 9.069755362670E-01 -8.068652440262E+01 1.474156636275E+00 3.038140814171E+00 -8.229100654296E+01 3.022641550482E-01 3.876587913371E-01 8.824726457658E+00 8.584207069685E+00 -3.167185678366E+00 1.908384796335E+02
 -5.485082271979E-02 1.199838283009E-01 2.519265907828E-02 -1.442781738663E-01 5.639237364517E-02 1.083427113416E-01 -2.254740932575E+00 -1.753698368468E+00 -5.474649650187E-01 4.186050694354E-01 5.717945965859E-01 1.686372119738E-01 1.271998008142E+00 6.704630338321E+00 -6.607040791721E+00 -4.567783158787E-02 -7.744261261616E-02 1.140659304702E-01 5.700692124649E-01 -7.515240305077E-01 2.417104291945E-01 1.286444944250E-01 -1.240890593623E-01 -3.548975122760E-02 8.153153209818E-01 -6.955534000873E+00 -5.912914633043E+00 -2.144344148345E+00 1.252462324508E+00 -2.869403786244E-01 -1.178391776165E-02 3.941222311665E-02 2.946649915754E-01 -1.513262182088E+03 -5.321531200047E+02 3.426330282973E+00 1.364569629621E-01 2.348536627825E-01 9.070859829502E-02 -1.274953424145E+03 4.335465904163E+02 5.502999827201E+00 4.888517115037E+01 -1.257027076625E+00 -6.293426815481E-01 3.908780607875E+01 -1.490077106846E-01 -3.506273622308E-01 3.079880636270E+03
 -2.408441506242E-01 -2.253301865050E-01 -2.484352116704E-01 1.052995193819E-01 1.438534571601E-03 2.373159946546E-02 4.406428325755E-01 -5.200004344634E-01 -5.543053662199E-01 -4.274832491274E-02 -6.610246256651E-01 9.109668491220E-03 2.560515860029E+00 8.333576258695E-01 -5.362951655911E-01 1.875001687315E-01 -8.592502061232E-03 -8.886302482053E-02 -1.108418917429E-01 6.794123698870E-01 1.354977947167E-01 -4.355786819397E-01 4.027287741413E-01 3.065683829385E-01 1.581217605220E-01 7.855100318471E-01 3.404032922226E+00 5.018188205934E-01 -1.353205084091E+00 4.353792324421E-01 -1.009357441106E-01 -2.195059202163E-02 2.171763412746E-01 -5.426871004172E+02 -8.731333978933E+02 -2.177328659858E+00 7.648649274300E-02 -5.203347878851E-02 -1.032732348211E-01 4.186596295296E+02 -7.233235797816E+02 -2.612907455167E+00 -8.612370327828E+01 2.198313290336E+00 4.467575870656E-01 7.181499173012E+01 -1.968298226240E-01 -4.459377184104E-01 9.468446859214E+01 2.543336985561E+03
 2.597654519887E-01 4.210756217616E-02 -1.350014152798E+00 -3.811273874297E-01 5.481926307433E-02 4.197998730019E+00 -6.916828808454E-01 1.289394271060E-01 -1.257246194861E-01 1.877998066796E-02 5.903754691321E-01 1.342780239891E+00 -1.491657742890E+00 -1.039884831787E+00 1.207483896111E+00 -7.459582990843E-02 2.143935392404E-01 -8.927648923492E-01 6.881449105633E-02 -4.130827177054E-01 1.629772427670E+00 3.788954400540E-01 -2.283547942527E-01 2.999550742197E-01 1.053335204904E+00 -5.151571011812E-01 -2.214758840660E+00 -7.409443768567E-01 8.147862082842E-01 -3.922944075230E-01 -5.388462709356E-01 1.878922015976E-01 -1.058186171187E+01 2.969542912670E+00 -2.398895095941E+00 -7.210300864273E+01 3.071396335198E-01 6.093833508823E-02 4.522610510061E+00 5.888218452345E+00 -1.974652058377E+00 -7.621643143706E+01 -2.481905258223E-01 3.178463261823E-01 1.243700982202E+01 -5.033188361348E-01 -5.501900860404E-01 9.428551712217E+00 -9.844106674497E+00 1.134474123473E+01 1.518554737971E+02
 -9.224037412156E-01 -5.913381061587E-01 7.397918730945E-01 -1.229922959958E+03 4.444465401043E+02 -9.484792561579E+00 -5.680692289639E+00 -5.754229200937E+00 -1.890281237188E+00 2.051792238536E+00 -2.460888871548E+00 7.692456716669E-01 1.736152301986E+01 7.790897172996E+00 -8.758329409132E+00 4.056699691624E+01 -2.787999500226E-01 1.116277547024E+00 1.192588050910E+00 2.462492946081E+00 1.045200137310E+00 -2.165742831697E+01 3.629392706494E+01 -1.031006061335E+00 5.259208503515E+00 1.821986470810E+00 9.371463052700E+00 -4.274983813630E+00 -3.674040082055E+00 1.500252957316E+00 -1.195585617474E-02 -1.914791769876E-01 4.028769271037E-02 2.938406129910E-01 2.345129050188E-01 8.619505573051E-01 -5.833959985245E-01 -5.619779894561E-01 3.532735405143E-01 -1.151399609840E+03 -3.942171648603E+02 6.397129147582E+00 -6.972118101191E-02 -4.345233080699E-02 -5.899976814424E-01 3.711387089266E+01 8.132813113791E-01 -4.721130846833E-01 -1.776055665107E+01 -3.310054772491E+01 1.361742942389E-01 2.738210715442E+03
 4.064570811657E-01 8.707830346443E-01 2.451033332654E-01 4.514697797095E+02 -7.405827847881E+02 1.353812769373E+01 -2.720750387633E+00 -5.082234356199E-01 2.509315655825E-01 1.795575370186E-01 3.108328647353E+00 -1.795188454594E+00 -4.997753356334E+00 1.823855840284E+01 -1.687825396629E+01 6.656906781011E+01 -9.357768437829E-01 7.241541844758E-01 8.393028726217E-01 -3.752262821223E+00 -1.711814949380E+00 -3.299518502703E+01 5.930662385244E+01 2.430565214480E-02 -1.414959546813E+00 -2.351211055094E+01 -2.166527238155E+01 -3.819336049741E+00 4.235383000062E+00 5.527460544106E-01 -3.316367722643E-03 2.963228691997E-01 1.093410910438E-02 -1.504949616502E-01 1.454087272862E-01 3.751665104786E-01 2.775396007240E-01 1.215148004470E+00 1.283993837967E-01 -3.915271584421E+02 -6.752845604091E+02 1.016818088305E+01 9.944047761798E-02 -4.165116585323E-01 -5.405531012918E-01 -6.538933336783E+01 -8.143299333545E-01 2.572909316976E-01 3.149234787827E+01 5.842556133185E+01 -6.453514847102E-01 -1.094206188012E+01 2.801199605665E+03
 -4.271349250889E-01 -7.003960722065E-02 1.151837555838E+01 -1.272637457311E+01 1.527301337514E+01 -8.154009532679E+01 1.074141711513E+01 3.777817779532E+00 3.196219965036E+00 -1.602108771768E+00 -1.393717167269E+00 -6.765273603351E+00 -2.366125516867E+00 2.184427625145E+00 1.195356531964E-01 8.351736746650E-01 -3.756458611681E-01 1.293330685177E+01 -1.453656145778E+00 1.137537306185E+00 -1.338646523668E+01 1.158076044695E-01 -4.169629772974E-01 1.115722868189E+01 -1.116676615919E+01 1.168281510097E+00 1.196896755660E+01 9.236706173709E+00 -3.555651632601E+00 4.685393347446E+00 7.456559595461E-01 2.189281084832E-01 5.392319228130E+00 -3.907279417777E-01 3.798349294609E-01 1.238067899768E+01 -1.093416717326E+00 -1.211770506074E+00 -9.389762215640E+00 8.955122309118E+00 8.863863057025E+00 -8.116221695585E+01 6.582386718943E-02 -5.804798566594E-01 -7.140825501208E+00 -7.694329684449E-01 9.084672359442E-01 9.484129624506E+00 9.046935711816E-01 1.345304375171E-01 7.075711177630E+00 3.509528656690E+00 -6.458696377710E+01 1.995822158281E+02