#BIOSYM hessian 1
@Type: Hessian Update
@Units
 distance: 	A
 energy: 	Kcal/Mol
#header
@natom 67

#label
C1      C2      C3      C4      C5      C6      C7      C8      C9      C10     C11     C12     C13     C14     C15     C16     C17     C18     C19     C20     C21     C22     C23     H24     C25     C26     C27     C28     C29     C30     C31     C32     C33     C34     C35     C36     C37     C38     C39     C40     C41     C42     C43     C44     C45     C46     C47     C48     C49     H50     H51     H52     H53     H54     H55     H56     H57     H58     H59     H60     H61     H62     H63     H64     H65     H66     O67

#element
C  C  C  C  C  C  C  C  C  C  C  C  C  C  C  C  C  C  C  C  C  C  C  H  C  C  C  C  C  C  C  C  C  C  C  C  C  C  C  C  C  C  C  C  C  C  C  C  C  H  H  H  H  H  H  H  H  H  H  H  H  H  H  H  H  H  O 

#matrix
201
 2.782504863038E+03
 -2.537502715754E+01 2.817336601878E+03
 -1.181965927096E+00 -5.551300073554E+01 1.947809009206E+02
 3.984508835064E+01 6.719113355265E+01 -2.142216482084E+00 2.792608736131E+03
 -1.751817949288E-01 -2.411763661539E-01 4.563153295375E-01 -2.355887916523E+01 2.765384541520E+03
 -3.795800634260E-01 -1.470554924421E-01 8.491539488263E+00 -1.605320561666E+00 -7.179513982485E+01 1.929455083947E+02
 -1.981509209769E+01 3.465206888339E+01 -8.246150794367E-01 -1.575182694117E-02 4.309418379807E-02 1.148448130511E-02 2.812707363844E+03
 -3.366278426758E+01 5.954075147854E+01 -2.105252207338E+00 -2.906579721988E-02 -1.809403444640E-02 5.245179111330E-02 -3.079365693457E+01 2.816710396824E+03
 3.866206604955E-01 -1.103097487320E+00 9.170121972912E+00 -5.431233047650E-03 2.468874639330E-01 -1.375182072893E-01 2.864240072814E+01 -7.083485917530E+01 1.985911460531E+02
 3.868162143930E+01 -6.861382655825E+01 1.880204278592E+00 -1.960257505254E+01 3.507196056684E+01 -9.601395436985E-01 4.198592993755E+01 7.201127434633E+01 -1.724478141841E+00 2.786948144809E+03
 -5.432943780818E-01 1.415047978317E+00 8.403391028411E-04 -3.302331536746E+01 5.900245388126E+01 -1.383584138684E+00 -3.349471426508E-01 -7.261627395751E-01 3.523492849522E-01 -2.108302604524E+01 2.832640752556E+03
 2.117848729746E-01 1.493699993750E-01 9.395202279949E+00 7.811587490914E-01 -1.667785409362E+00 9.331025085792E+00 4.189103166247E-01 1.213465536374E+00 9.429355742840E+00 9.951831590525E+00 -6.892084485503E+01 1.972033268626E+02
 -2.772253143360E-02 -3.765181717043E-02 -8.109580055540E-02 -4.035878651733E-02 -3.127378549755E-02 1.177845801937E-02 4.207916061423E+01 -7.331232446118E+01 2.720728887010E+00 -2.163251569392E+01 3.819721709187E+01 -1.425113416443E+00 2.636908269511E+03
 5.122840889260E-02 1.989646424260E-01 3.991816781125E-01 -3.474218872307E-02 -7.531626054708E-02 4.076420163312E-02 5.277648763385E-01 -6.988886362118E-01 -2.364195787356E-01 -3.542602623970E+01 6.273937215370E+01 -2.041887851825E+00 -2.219275848036E+02 2.896719672327E+03
 1.191709981295E-01 1.699741978759E-01 -2.359567118913E-02 -1.542288296175E-01 5.576946215806E-02 -5.336996554724E-02 5.185993664511E-01 -3.749672179751E-01 1.059073185096E+01 6.334575624482E-01 -1.231776121979E+00 1.039603600871E+01 2.408009042668E+01 -8.672985147642E+01 1.579504274534E+02
 -1.226600077050E+03 4.492601585176E+02 -7.631935418079E+00 -4.656200272409E+02 -9.883161184525E+00 9.987792372329E-01 -2.051905706721E-01 3.231531623528E-01 -9.109763704556E-03 2.104339222920E-01 2.736584861186E-01 2.850620439024E-01 1.429392304810E-01 2.004350100086E-01 -2.817163793090E-02 2.821080205379E+03
 4.449334242043E+02 -7.413596211088E+02 1.359667371159E+01 -8.531644183140E+00 -1.432307558583E+03 3.660123410121E+01 -1.066952990989E-01 1.886088989077E-02 1.261437461028E-01 1.657359984429E-01 -2.810131970397E-01 -4.534936301390E-01 4.587194793605E-02 -1.038225788788E-02 -1.868167885619E-01 -5.930884554178E+00 2.781577664362E+03
 -7.931333596514E+00 1.382175551754E+01 -8.347349955963E+01 8.247574491894E-01 3.558864408306E+01 -8.216992333458E+01 1.494378834331E-01 2.203890307821E-01 4.835140428829E+00 1.037518967924E-01 2.386767896535E-01 -9.497863634921E+00 1.717789301036E-01 -6.206058310955E-02 5.414497574351E-01 -5.596140883593E+00 -6.513792628218E+01 1.951676172261E+02
 -1.192709946819E+03 -4.123050876830E+02 7.374943733344E+00 3.580118748837E-02 -9.282722336100E-02 2.833880946958E-02 -1.263114158772E+03 4.472371477491E+02 -2.297407484278E+01 -4.856478175438E+02 -1.202548474483E+01 -1.981591241356E+00 -2.838556765433E-02 -2.470970890253E-01 2.479375088896E-01 -1.919337624384E+01 -3.297268709339E+01 5.342373403355E-01 2.820354749586E+03
 -4.124509447965E+02 -7.009597606364E+02 1.513348166703E+01 3.323954861112E-02 -1.096107334518E-01 -4.409791859420E-01 4.491715376629E+02 -7.467144037905E+02 2.302710414313E+01 -1.422919833159E+01 -1.512400627378E+03 3.606005651799E+01 -2.194415859277E-01 -1.824876452782E-01 -6.997265462547E-01 3.457471115518E+01 5.780470495271E+01 -1.361266264565E+00 -2.518478521916E+01 2.842696862226E+03
 6.990421853312E+00 1.323383523450E+01 -8.192615858478E+01 3.668390764481E-01 -2.963253867899E-01 -9.062874685127E+00 -2.244742893377E+01 2.194762249191E+01 -8.709606654254E+01 -1.615956221233E+00 3.773245521376E+01 -8.702188495468E+01 -8.526694684936E-02 -1.180774952559E-01 -9.426872478204E+00 -7.127059787269E-01 -3.400812223659E-01 9.582376260000E+00 1.719668753552E+01 -7.212311386687E+01 1.997786671891E+02
 2.950349112895E-01 9.689641041494E-02 2.314222903215E-01 -1.222497048335E+03 -4.187752259311E+02 1.274087541649E+01 5.652026384729E-02 -7.388275460170E-02 -1.098134064287E-01 -1.223402480757E+03 4.421677145142E+02 -1.457491045322E+01 5.651433275158E-02 1.017367569881E-02 3.167815522001E-01 3.721129823627E+01 -3.020169899268E-01 -4.636443065815E-02 4.143593461742E+01 -5.175689066613E-01 2.833552132147E-01 2.808724006599E+03
 -1.141978686799E-01 -4.132451286762E-01 -2.167631869391E-01 -4.211042019817E+02 -7.031908077941E+02 1.843773748070E+01 -3.971902737047E-02 1.825920679215E-02 2.832295928249E-01 4.405537240489E+02 -7.369451881840E+02 1.972691195660E+01 -5.250789265111E-02 -2.668050438186E-02 -4.253501128489E-02 -6.674641282233E+01 8.180290000807E-01 4.493588118927E-02 7.009267016053E+01 -5.136734995769E-01 -3.824208892505E-01 -1.894486361612E+00 2.805559306543E+03
 1.303607457295E-01 -4.033143427720E-01 -8.788831237349E+00 1.337360736588E+01 1.831731670744E+01 -8.271660528112E+01 -8.838966714167E-02 1.703858654963E-01 3.896879784546E+00 -1.441573895841E+01 1.882245250505E+01 -8.442611321119E+01 2.386405078132E-01 4.612975081996E-01 5.240754755462E+00 1.619423876553E+00 4.393682494203E-02 9.016448174257E+00 -1.651071106072E+00 1.375742548010E-01 1.038323333834E+01 1.472951614475E+00 -7.828644733692E+01 1.978682296332E+02
 2.387831830544E-02 2.077705215755E-01 9.185244656584E-02 6.313856745487E-02 -3.821765105314E-03 1.412073323671E-02 -1.195996053623E+03 -4.076090985521E+02 -1.003030663636E-01 4.180663807669E-02 -1.663684215229E-01 2.143185361760E-01 -5.233299448636E+02 7.324178868342E+00 -5.475801645475E+00 8.656865684099E-02 2.760154160304E-02 -4.237708959066E-01 -1.990269538742E+01 -3.378726808939E+01 2.182911334539E-01 -1.904368485177E-01 1.977668760697E-01 -4.842968608951E-01 2.774424377176E+03
 -1.289058249449E-02 -4.664878179568E-01 1.115276708517E-01 -6.210695551600E-02 1.225547636664E-01 -9.544057326384E-02 -4.166336664892E+02 -7.033116354146E+02 1.376649579459E+01 -2.109253274798E-02 2.152329514563E-01 -3.653940477647E-01 9.220407980614E+00 -1.634033946632E+03 4.979977601319E+01 -6.046573139595E-01 -1.276610536800E-01 4.325068474713E-01 3.515152191126E+01 5.960488830222E+01 -1.074360066183E-01 2.470608049436E-01 -1.447078032801E-01 3.496020111263E-02 -2.959236173616E+01 2.953912481139E+03
 -2.362480179353E-01 4.823148332422E-02 4.466310840915E+00 1.270642870030E-01 -2.716175058243E-01 2.114993996495E-01 -4.457203412159E-01 1.297548149760E+01 -8.443878924893E+01 3.873543696403E-01 -4.842243042558E-01 -1.063292384109E+01 -4.652647590608E+00 5.068266543233E+01 -7.966171802684E+01 7.871048022359E-02 1.268574947575E-01 -2.357945744302E-01 -1.308444239081E+00 -1.321062244243E+00 1.131250859383E+01 7.415023532000E-02 -9.233436125772E-02 8.589933043009E-01 3.479120559412E+01 -9.022752345791E+01 1.868519890603E+02
 -4.074369298931E-02 1.246236671450E-02 -1.293178003595E-01 5.458025376536E-02 2.515180111715E-02 -9.599963413638E-03 -1.159431261756E-01 2.261599197372E-03 3.606427951355E-01 -1.195846602581E+03 -4.162592621044E+02 6.460484930739E+00 -1.335060647441E+03 4.952350623004E+02 -2.253291213586E+01 -1.734054477415E-01 -4.603832965651E-02 -1.478435820203E-01 3.892127013866E+01 -2.437917938331E-01 1.167933310417E-01 -1.961343837201E+01 -3.258136195767E+01 4.593973828069E-01 4.958823974809E+01 2.508766647815E-01 -2.098677201035E-01 2.882247386421E+03
 8.604249736028E-03 -1.771552779461E-01 -1.661220130956E-01 1.700114365592E-02 3.606785360767E-02 5.318469688060E-02 -1.462515716451E-01 8.689346605439E-02 -1.434079125415E-02 -4.079149495052E+02 -7.034691691918E+02 1.519089654499E+01 4.934101552880E+02 -8.204724530724E+02 2.527819119885E+01 -7.636181136887E-03 3.854045838512E-02 -7.108136105546E-02 -6.865628916167E+01 7.699583296617E-01 -4.305809105757E-01 3.449695630410E+01 5.798373268776E+01 -1.063745132077E+00 8.141258787072E+01 3.911116185767E-01 6.326422747955E-01 -9.551475823173E+01 2.843543837095E+03
 3.222750796462E-02 -4.473329275019E-01 5.773697150991E+00 -2.904931412529E-01 -2.573902814003E-01 4.802854499570E+00 -5.503845886960E-02 -2.136429402740E-01 -1.244601352791E+01 5.905906858983E+00 1.411113512828E+01 -8.413606535121E+01 -2.174652899875E+01 2.611097308812E+01 -7.855007320194E+01 9.378207335442E-02 -2.335126577812E-01 -9.184673842618E-01 1.933949640782E+00 1.805898786634E-01 1.157930598749E+01 -6.101383259803E-01 -1.392744907086E+00 1.037667635814E+01 -2.792675705959E+00 -5.473902256660E-02 1.258623357346E+01 1.836485088362E+01 -7.812062006304E+01 1.910744434238E+02
 -1.047595567924E-01 1.737550150163E-01 9.242253321133E-02 -5.760240405223E-03 -6.265403531046E-02 -1.846750030894E-02 4.061279389674E-02 -4.736144393071E-02 -2.418519673878E-02 -9.980425408522E-03 -1.178021039096E-01 9.454751357986E-02 -5.029006880368E-02 -4.176724770597E-02 -8.081504861257E-02 2.366059111473E-01 -3.172765116321E-02 -1.816652759690E-01 -1.058676639310E-01 -1.315323692316E-02 -2.419308392088E-01 -9.693898580720E-02 7.344219610326E-02 -8.048505482507E-02 3.844253620354E-02 8.205007224502E-02 -6.027367361717E-02 6.621034604583E-02 1.523153662791E-02 1.366538323474E-01 2.811373197360E+03
 -3.532308645903E-02 -1.610119087664E-01 -2.334280981981E-01 5.615880089076E-02 4.049214476920E-03 3.459551466076E-04 -3.550117468920E-02 3.618841765842E-02 1.370665576417E-01 2.027551145271E-02 1.919582875380E-02 4.671261212159E-02 1.357054486958E-03 -4.911360212988E-02 2.900329141313E-02 -4.365359242804E-02 2.479487500397E-02 2.416002306026E-01 2.508727822448E-02 3.503070042969E-02 -1.639904376020E-01 -4.213227459538E-02 5.127465318027E-02 -1.054688107818E-01 3.826504921527E-02 -5.651720453442E-02 -6.633477326549E-02 1.155719772528E-02 4.906799413083E-02 -4.335996984416E-01 1.499249639792E+00 2.798358107058E+03
 4.995371786305E-02 -1.209897694011E-01 3.025826798088E-01 -6.978257906312E-02 1.219401296587E-01 -7.752541014395E-02 2.632005599817E-02 4.948110751030E-02 1.200615044372E-02 -5.566597292657E-02 -7.056566588877E-02 2.184565270738E-01 -8.765611127349E-02 1.021233281265E-01 -3.890108361273E-02 2.515355911145E-02 6.115431881270E-02 4.487054740110E+00 8.293612837668E-02 2.757749039560E-02 -3.104161127522E-01 -7.736125889142E-03 3.013357675074E-02 -1.214699924399E-01 6.524160290607E-02 -3.108825047812E-02 -4.361520632549E-01 1.244104648600E-01 -6.546731609173E-02 1.354738456824E-01 -8.783269633506E+00 -6.281426410695E+01 1.954730144088E+02
 -7.477533560091E-02 4.946364305220E-01 1.885264572023E-01 1.302779281233E-04 -5.621665719154E-02 7.106238797860E-02 7.758441388582E-02 -9.115318123647E-02 4.989997592976E-02 -4.590574995704E-02 -1.990945381300E-01 1.968193378643E-01 -1.087744455207E-01 -6.691528630243E-02 -1.514448363464E-01 3.731570238402E-01 -4.273199823025E-04 -3.819881136890E-01 -1.798949474996E-01 -2.325022480643E-02 -3.328554719426E-01 -1.568600199846E-01 1.118172782397E-01 -1.607455823541E-01 7.659981628380E-02 1.563737819671E-01 -1.200740172799E-01 1.426586190959E-01 1.122911801338E-02 1.881008977655E-01 4.141287351256E+01 7.160935118129E+01 -2.117970762318E+00 2.781315272068E+03
 -8.552013077601E-02 5.322758927850E-01 1.990759201623E-02 -1.165596810807E-02 -3.761690610077E-02 -1.953476681837E-02 9.949511160366E-02 -1.315544952963E-01 3.667368561327E-02 9.963206099028E-03 -5.987701000274E-02 2.275228118803E-03 -5.729644661303E-03 -1.390399356110E-01 8.446223718566E-02 4.284173023129E-01 -9.105221653789E-03 9.804579505622E-02 -2.560471455849E-01 -1.215369671097E-01 9.661195367122E-03 -7.015365039244E-02 -1.136592679963E-02 1.588062320335E-04 -1.012847103615E-01 3.650489407604E-01 -1.245198124172E-01 2.441338593911E-02 2.437568454461E-02 -7.297059099714E-02 -1.136251080102E+00 -1.734825472968E+00 3.047051584467E-01 2.780362487747E+02 2.857733977574E+03
 -2.906435517018E-03 -2.559056756407E-01 5.202655004436E-01 -6.959705838532E-02 -1.968331164096E-01 1.903306561856E-01 4.298725209753E-02 -2.666102231011E-02 -1.294033534455E+00 -1.351426869539E-02 -9.760117471088E-02 -6.064016418576E-01 8.403197478034E-02 4.407686018074E-01 1.579207999997E-01 -3.984707687204E-03 -6.140644960560E-02 -2.651624654954E-01 -2.237439681884E-02 -1.451684159787E-01 1.005206759755E+00 3.206032198335E-01 -2.088032420417E-01 1.198575264046E+00 -3.255521720108E-01 -1.490916614510E-02 1.149496811933E+00 -1.844502589172E-01 -1.875200272507E-01 3.010984231079E+00 -1.571953155834E-01 -1.405172356179E-01 1.070595048776E+01 -1.473283850028E+01 -7.426829923566E+01 1.528033024804E+02
 -2.043300895485E+01 -3.408946635977E+01 1.031243790743E+00 3.858553342969E+01 -2.902145974736E-01 1.746595898012E-01 1.787770610453E-01 -1.645373388847E-01 -1.557553631856E-01 -3.348408110342E-02 -2.116555225572E-01 7.013974077601E-03 -1.101842885373E-01 -1.454096989650E-01 -1.488491662431E-02 -1.248584798752E+03 -4.311473417124E+02 1.249819322813E+01 -2.801685391858E-01 1.610718977950E-02 -4.430358723626E-01 -9.583874550769E-02 6.958358423427E-02 -3.081613569557E-02 -8.755709833052E-03 3.249186278003E-01 -5.234615000821E-02 1.695494816897E-01 7.156108776141E-02 1.833681039343E-01 -1.936620548109E+01 3.422529395868E+01 -7.038709630945E-01 -1.738885537678E-01 -2.260449123628E-01 7.668072340555E-02 2.776390389854E+03
 3.545031836422E+01 6.197031884707E+01 -1.783022904935E+00 -6.809247566143E+01 3.539733926208E-01 2.599825039196E-01 1.863708095046E-01 -1.971029476658E-01 3.070893306013E-01 6.553530809866E-02 -2.262252931253E-01 3.458590085978E-02 5.792997872777E-03 -2.933209382387E-01 3.829280838033E-01 -4.345211861496E+02 -7.242370758554E+02 1.751019580522E+01 -7.771546540490E-01 -3.585974659707E-01 5.883419263512E-02 -1.536879466832E-01 1.074116672732E-01 1.458551691675E-01 -3.203842126481E-01 7.871747591694E-01 -3.237447023076E-01 6.465382809337E-02 1.040797649904E-01 -8.599237365906E-01 -3.272522992150E+01 5.749550285552E+01 -1.279272697992E+00 -8.073824006242E-01 -4.877833088197E-01 -3.605909509873E-01 1.631395091401E+01 2.804509941489E+03
 -9.353686372486E-01 -1.387865577216E+00 1.058610300263E+01 1.952248991003E+00 -7.862621819983E-02 9.457828690319E+00 -4.223270063443E-02 -1.636365948853E-02 -1.582016855422E+00 -4.239325676989E-02 -3.010026834930E-01 -4.747709263973E-01 2.195877401931E-02 4.867902360567E-01 -1.532538260959E-01 1.193664238056E+01 1.600664145224E+01 -8.488812154798E+01 4.394270044166E-02 4.128397506532E-02 5.192579840474E+00 2.429172416544E-01 5.593279827322E-02 5.742452003054E+00 -1.379562265783E-01 -2.461626127977E-01 1.513976404118E+00 -1.488406305083E-01 -1.494633730886E-01 3.971606224118E+00 8.902897004213E-01 -1.479588728111E+00 8.549419130839E+00 1.219014369797E-01 -5.381869438519E-02 2.052503986168E+00 -7.051519718635E-01 -6.620223320848E+01 1.959911066036E+02
 -6.297938677240E-02 6.590005663540E-01 1.626271198610E-01 -1.893276728016E+01 -3.149719983141E+01 8.828999541985E-01 8.556456459362E-02 -9.322158112171E-02 -5.726107427659E-03 1.089288772446E-02 -6.594299434804E-02 -6.383855015213E-02 7.751753229966E-03 -4.192715573080E-02 2.198939860854E-02 2.915700270328E-01 -7.547256439467E-02 -1.336233694092E-01 -2.469210012865E-01 -1.469142984590E-01 2.165383325930E-01 -4.426214529470E-02 -1.307351208004E-02 4.161232235350E-02 -1.133958349860E-01 2.443657353573E-01 1.117590102520E-02 -5.176894313692E-03 -2.429132200035E-02 7.892165316431E-02 3.941533142321E+01 -6.915599149831E+01 1.921414385372E+00 -2.309993644478E+01 4.011234474474E+01 -9.013834758544E-01 3.982585370390E+01 6.636784436205E+01 -1.801430748767E+00 2.773461271107E+03
 -1.662820102509E-01 6.846020529058E-01 -1.177791964628E-02 3.349825034691E+01 5.576318752567E+01 -1.287059906518E+00 9.102829836229E-02 -1.574002479788E-01 1.715435243559E-01 -6.945467062177E-02 -1.150033722111E-01 -5.705436108143E-02 -5.509815481727E-02 -1.648089362398E-01 1.110627651772E-01 6.624581521737E-01 3.613015395359E-01 2.676437792738E-02 -2.760856968396E-01 -9.170703687318E-02 -6.575801390612E-02 -9.900802568358E-02 1.275312339108E-02 3.133517492432E-02 -8.177542307698E-02 3.812601674717E-01 -1.397090293406E-01 9.167142953493E-02 2.974421927971E-02 -4.441335456362E-01 -1.516536849645E-01 4.171910735374E-02 7.954609549729E-02 -4.236854645845E+01 7.372621358035E+01 -1.725064377977E+00 -4.980843011173E-01 -1.290191316382E+00 -2.107283691687E-01 -3.907492715112E+01 2.753238951701E+03
 1.117611399769E-01 -6.032712113892E-01 8.457514569525E-01 -7.865762528348E-01 -1.743677168426E+00 8.423152233230E+00 3.708672487930E-02 1.171510333972E-02 -1.120083071126E+00 -1.100758582808E-01 -6.175464877215E-01 2.410955181912E-01 -2.531981115092E-01 3.928970076697E-01 -5.576410915641E-01 -1.980131822111E-01 -4.643107574865E-01 -1.048467305021E+01 1.135775553485E-01 2.457675424180E-01 -6.127152599497E-01 7.037600362815E-02 5.175942370610E-01 4.713023619700E+00 2.802987806584E-01 -4.306077698661E-01 7.288305043151E-01 2.750193049371E-01 -3.628484670111E-02 3.369311349861E+00 2.215777148473E-01 1.829724165910E-01 9.805655646814E+00 1.730219622142E+00 -1.979918113217E+00 1.386269901648E+01 2.200497016315E-01 -3.638476377258E-01 1.144767000853E+01 -4.466973910796E+00 -6.876053349300E+01 1.897067958104E+02
 9.343895592219E-02 -3.683171108325E-01 -1.198713807866E-01 1.175062004875E-02 4.101688747768E-02 -5.747833427143E-02 -5.781448264076E-02 9.212589592193E-02 3.645565578254E-03 4.396396284453E-02 1.457802550972E-01 -1.233917252583E-01 8.480748389947E-02 5.840556721428E-02 1.288253833570E-01 -3.366647659338E-01 -9.152572364232E-03 3.162918077110E-01 1.358056522072E-01 1.881789835924E-03 2.486720531249E-01 1.023466616877E-01 -6.507193051368E-02 9.832986664195E-02 -7.256489675419E-02 -1.047609174513E-01 1.243537922039E-02 -1.098628735633E-01 -1.955509196613E-02 -2.170998930106E-01 -1.235314273776E+03 4.334859949058E+02 -7.103776310915E+00 -5.064290602107E+02 -1.684229758606E+01 1.774723593230E+00 8.321711533795E-02 6.372946598718E-01 -2.356149258992E-01 7.024305394886E-02 3.121597352471E-02 -4.238543563514E-01 2.840854860015E+03
 1.076433068895E-01 -5.408096363319E-01 1.150394430734E-01 -1.832422306725E-02 5.645576467928E-02 4.154926760107E-02 -9.917256170876E-02 1.376401583150E-01 -1.316754910908E-01 -1.851554277481E-02 7.163287324678E-02 -3.219494882481E-02 1.567049035059E-02 1.905757059606E-01 -1.029697172040E-01 -4.942196260378E-01 -6.881659906248E-03 -1.464701462545E-01 2.973057783688E-01 1.118404310463E-01 8.534458560621E-02 1.097010901627E-01 -2.758373952801E-02 6.733159401180E-02 9.406715505870E-02 -3.910241199977E-01 1.618557220887E-01 -4.919263373199E-02 -5.620258049624E-02 3.645495633435E-01 4.355872965635E+02 -7.304525464453E+02 1.461321312964E+01 -2.677817321346E+01 -1.540210653603E+03 3.937693760333E+01 2.069263709827E-01 3.868803038629E-01 2.940052586471E-01 1.057019873070E-01 3.971808358781E-01 -2.187847638215E-02 3.061426224765E+01 2.893194834404E+03
 -1.578505397020E-02 -5.208698360080E-02 -1.679354789987E-01 1.251919909814E-01 -1.760614486756E-01 2.277642500977E-01 -1.155887808610E-02 -1.186898604132E-01 -5.595787229554E-01 2.788448829444E-02 -2.490901023266E-02 -4.142266321008E-01 6.856861568956E-02 2.451105698977E-03 -6.401034414341E-02 -7.641211394102E-03 6.937825231755E-02 -4.404562272079E-01 -8.198420432056E-02 2.397892865060E-02 5.275383416259E-01 1.016691396959E-01 -6.043906755081E-02 5.458110905650E-01 -6.107020242426E-02 -6.595348770369E-02 1.130711348853E+00 -1.320645120910E-01 6.107182353648E-02 1.215780608276E+00 -7.509729235246E+00 1.467872879986E+01 -8.592583997183E+01 2.095914826371E+00 3.882938431124E+01 -7.710898660304E+01 1.237040998322E-01 -1.512900643063E-01 5.807283617776E+00 -9.988855981847E-02 -2.923886664985E-01 -9.761473263781E+00 -1.001539889059E+01 -7.124673085547E+01 1.872891680410E+02
 4.455443506032E-02 -2.679298745887E-01 -1.682854019271E-01 -6.430682248946E-02 6.985826172879E-02 -4.778516354499E-02 -3.263858065769E-02 2.861815376912E-02 -3.924065012598E-02 -6.059356838555E-03 1.294990610334E-01 -5.303868921742E-02 3.928927684651E-02 6.817429008755E-02 1.163763940942E-01 -1.969482105711E+01 3.488567817457E+01 -7.131933906827E-01 8.460700721984E-02 1.300721768518E-02 2.154151048080E-01 1.038684284573E-01 -1.133254340343E-01 1.824349328457E-01 -5.641204344415E-02 -5.500883580892E-02 7.619530851076E-02 -5.182332669764E-02 -3.446961140412E-02 5.891275301032E-03 -1.222062364054E+03 -4.251755059105E+02 1.369338022943E+01 -9.543525054465E-02 3.834634571546E-02 1.450929173166E-02 -1.174015934162E+03 4.231769388545E+02 -1.050144630577E+01 -4.708851616086E+02 -9.052178466656E+00 8.045532656544E-01 -1.957814084694E+01 -3.398872714958E+01 9.770904932525E-01 2.752271523840E+03
 1.638626121147E-01 -3.004290528165E-02 2.831246240534E-01 -6.574091751348E-02 5.958659248915E-02 -3.230358923716E-01 -9.190828734482E-03 -2.542748914041E-02 7.622334088780E-02 -4.991533899633E-02 -9.721869578164E-02 1.960586533410E-01 -7.928152262048E-02 -2.935045344624E-02 -2.854180997926E-01 -3.301759392584E+01 5.848306764327E+01 -2.031618248587E+00 7.668449326253E-02 1.277835515215E-01 -1.947363372655E-01 -7.006690737234E-02 9.217099644656E-02 -2.093520203125E-01 1.714662589379E-01 -1.129750349179E-01 4.009156062556E-02 9.024189904240E-02 1.394825060330E-02 1.593855094700E-01 -4.281762715030E+02 -7.131439360724E+02 1.757758817029E+01 1.656351164418E-01 7.359144562223E-03 -3.426921892547E-01 4.245381478290E+02 -7.167846651598E+02 1.699036495452E+01 -1.727181154923E-03 -1.496300492492E+03 3.693074388803E+01 3.431453753084E+01 5.972739424606E+01 -1.172586074785E+00 4.300616165476E+00 2.807972725049E+03
 7.763836701198E-02 2.594563260513E-01 4.467570304438E+00 -1.987940099938E-01 -1.473655292836E-01 -8.880082852288E+00 8.613807981713E-02 -8.679791501483E-02 -3.694701263552E-01 4.304553868420E-02 3.140363146444E-01 -7.355334058710E-01 2.229812069069E-01 9.086727596008E-02 6.382996190797E-01 9.924809452951E-01 -1.219834102833E+00 1.022086465273E+01 -1.294383636973E-01 -2.691302800747E-01 1.441508226151E+00 3.997042358292E-01 -4.416559304954E-01 7.977011524540E-01 -5.635643244686E-01 4.796719376325E-01 3.690800395570E-01 -2.896672800113E-01 -1.376005337934E-01 3.000363511769E-01 1.391747155106E+01 1.704462991293E+01 -8.290434139074E+01 -2.232922316941E-01 -1.957225710447E-01 -9.980364555676E+00 -1.109064472878E+01 1.674261531583E+01 -8.115866413649E+01 7.995646103816E-01 3.673457657482E+01 -8.420472209065E+01 -5.447776081387E-01 -9.858485462146E-01 9.867371179221E+00 -3.613711692398E+00 -6.921722478404E+01 1.937609619002E+02
 6.923757175827E-02 -6.242372276138E-01 -8.025321033275E-02 3.420458113528E-03 3.390238352136E-02 -1.558855544509E-02 -9.960847498640E-02 1.347057493387E-01 -4.325203152371E-02 1.673533098682E-03 4.855058627242E-02 2.123913594444E-02 4.903914505688E-03 1.176091617058E-01 -5.985752507087E-02 -3.964242753386E-01 1.368853836847E-02 -5.988690053645E-02 2.537265032594E-01 1.274275176062E-01 -1.002824805706E-01 4.969357277338E-02 3.142839024247E-02 -2.708768657968E-02 1.006978299404E-01 -3.367309279830E-01 7.160170662190E-02 -1.783962885417E-02 -6.178416244883E-03 3.416094927628E-02 2.446685725654E-02 -1.609082246430E-02 -1.750678788258E-02 -1.504801036409E+03 -5.281267742271E+02 1.864073644928E+01 2.913636164517E-01 6.046762650568E-01 1.613505408096E-01 -1.278477229848E+03 4.348080888251E+02 -9.184590396948E+00 4.875543073946E+01 -1.408552023931E+00 -3.799540456706E-02 3.904934310160E+01 -1.115577397309E-01 -2.276690985786E-01 3.073680993656E+03
 5.733350837029E-02 -4.042990578944E-01 -7.252489924145E-02 -1.396515558699E-02 4.383304891752E-02 6.754816766360E-02 -5.506386363385E-02 7.046038133551E-02 -1.542189406706E-01 3.503965972402E-02 1.813309161213E-01 -2.053399558237E-01 9.763384044008E-02 1.073217401345E-01 1.448746801556E-01 -3.234522530118E-01 -2.063418649950E-02 3.277828506043E-01 1.571796732209E-01 -1.433930224576E-03 3.732973896150E-01 1.741470713044E-01 -1.412808659306E-01 2.364987211287E-01 -8.705028050623E-02 -1.364913224583E-01 1.461393719479E-01 -1.341080779526E-01 -3.876209715082E-02 1.158559052252E-01 -6.171331391147E-02 9.977469489179E-02 -1.402266021680E-01 -5.382146778132E+02 -8.664591758763E+02 2.363703364052E+01 1.603578189196E-01 6.955121119526E-01 1.312504184718E-01 4.196717157071E+02 -7.233146845937E+02 1.640910957163E+01 -8.570959704688E+01 1.827207121182E+00 4.638876748260E-01 7.195786140329E+01 -4.154001617901E-01 3.790393214881E-01 9.030771675589E+01 2.536745665226E+03
 2.544395557094E-02 3.899280426105E-01 -5.708033565569E-01 4.557099208496E-02 2.749684983119E-01 4.384575504898E+00 8.051788860996E-03 -2.081590003180E-02 8.638427164553E-01 7.043207902598E-02 2.938887093325E-01 -1.771459922604E-02 9.385368342116E-02 -3.189937491418E-01 2.866336490691E-01 -1.804085778024E-02 1.713403709948E-02 9.405958980709E-01 -9.112780376907E-02 -7.197543820865E-02 1.648815174596E-01 -1.167945041101E-02 -9.086908564247E-02 -4.765376625962E-01 -1.008485184887E-01 2.910905840750E-01 -6.217380854628E-01 -5.720774336231E-02 8.622713184795E-02 -2.415216641799E+00 -1.609565299469E-01 -1.244519622725E-01 -1.048616590433E+01 1.876429229919E+01 2.354624532680E+01 -7.186714059243E+01 -1.925008165994E-01 6.450393160516E-01 2.794047897684E+00 -8.919923436327E+00 1.676557005741E+01 -7.863053518394E+01 2.420418828386E+00 2.778846323122E-02 1.030304045019E+01 -1.768498522322E+00 -1.897104417050E-02 1.030149201848E+01 -1.018747885860E+01 -6.548117456190E+01 1.538147798904E+02
 -6.784815253330E-03 -1.967989821125E-01 -2.324648041611E-02 -1.225481061871E+03 4.472584617738E+02 -1.141184731490E+01 1.798050775742E-02 -8.647311595857E-03 -3.057433572682E-01 4.224458352122E-02 7.800047122226E-02 -4.191208152248E-01 1.070171384221E-01 2.877643621957E-02 3.491839567670E-01 4.037155945982E+01 -2.238641997668E-01 7.374566680612E-01 9.604691763930E-03 -8.499815027164E-02 4.478462808947E-01 -1.975606144003E+01 3.579463960687E+01 -8.093543941394E-01 -2.308409970781E-01 1.875594249842E-01 1.273418206944E-01 -1.371378603489E-01 -1.192196057284E-02 3.111547317044E-01 -3.644375319558E-02 -8.032400065167E-02 -1.114730676547E-01 -5.315128427852E-02 8.798707332062E-02 2.871544255722E-01 -1.888936051819E-01 2.059188542176E-01 -4.001044404372E-02 -1.140177577809E+03 -3.879763308342E+02 1.167386326271E+01 3.451698495221E-02 -5.608951306459E-02 1.162578809410E-02 3.673082858468E+01 -3.016653379589E-01 5.240365864996E-01 -1.777480848779E+01 -3.233576729557E+01 1.079684228361E+00 2.730392868635E+03
 1.560283982602E-01 -8.304790479983E-01 -1.049005223381E-01 4.566085500532E+02 -7.427740697736E+02 1.888597909568E+01 -1.147775880958E-01 1.486042622502E-01 -4.250871840364E-03 6.298644963789E-02 1.183646182288E-01 2.530510294199E-01 2.923754294800E-02 1.043750225835E-01 -1.606789953130E-01 6.639705686626E+01 -7.957006528361E-01 2.087640071548E-01 3.024086010757E-01 1.843052684144E-01 -7.344160673978E-02 -3.288963877259E+01 5.937537422189E+01 -1.398553065600E+00 1.280934849660E-01 -4.000817120443E-01 1.392792841144E-01 -4.622107650236E-02 1.411095045328E-03 1.024853803847E-01 1.992166298044E-01 -1.665584133087E-03 8.258039935875E-02 2.625098442244E-01 2.645307092586E-01 1.575431071631E-01 2.332284275946E-01 1.030445549525E+00 8.427171821616E-04 -3.860291003730E+02 -6.678475715829E+02 1.783606277894E+01 -2.018946171108E-01 -3.536376876020E-01 1.071053310911E-01 -6.525486757657E+01 1.714158691920E-01 1.162593795543E-01 3.113935953472E+01 5.744987589730E+01 -1.417185305800E+00 -8.520858301697E+00 2.818153120756E+03
 -5.782050531508E-02 4.040995434720E-01 4.419496820746E+00 -1.276105126776E+01 1.931014119642E+01 -8.272542497913E+01 5.127749994759E-02 -9.938869265813E-02 -5.348051483980E-01 1.687471761414E-01 3.422942249350E-01 3.887683628504E+00 2.044131672597E-01 1.235790406643E-02 3.588500822069E-01 -1.441754022812E+00 2.883555868539E-01 9.280995482190E+00 -2.113682874537E-01 -2.647756589801E-01 1.262433982727E+00 1.214346449752E+00 -1.835761894831E+00 1.045735266088E+01 -3.948241011631E-01 2.230376872925E-01 1.004981540690E+00 -2.830609265211E-01 2.618372793639E-02 7.667656153966E-01 -2.923502090622E-02 1.618357175891E-01 3.785185790208E+00 -3.911949464117E-01 1.472257781795E-01 6.242854560519E+00 -2.352150144519E-01 -4.731140781020E-01 -8.190353045860E+00 1.295140375694E+01 1.753379262757E+01 -8.162819746743E+01 2.019911761374E-01 -6.555572225618E-02 8.689439709913E-01 1.490338954359E+00 2.025492938120E-01 8.909826344802E+00 -6.538431140970E-01 -9.007044545884E-01 9.810134760894E+00 -1.808178400835E+00 -8.384467952530E+01 1.900974611224E+02