#BIOSYM hessian 1
@Type: Hessian Update
@Units
 distance: 	A
 energy: 	Kcal/Mol
#header
@natom 66

#label
C1      C2      C3      C4      C5      C6      C7      C8      C9      C10     C11     C12     C13     C14     C15     C16     C17     C18     C19     C20     C21     C22     C23     H24     C25     C26     C27     C28     C29     C30     C31     C32     C33     C34     C35     C36     C37     C38     C39     C40     C41     C42     C43     C44     C45     C46     C47     C48     C49     H50     H51     H52     H53     H54     H55     H56     H57     H58     H59     H60     H61     H62     H63     H64     H65     H66

#element
C  C  C  C  C  C  C  C  C  C  C  C  C  C  C  C  C  C  C  C  C  C  C  H  C  C  C  C  C  C  C  C  C  C  C  C  C  C  C  C  C  C  C  C  C  C  C  C  C  H  H  H  H  H  H  H  H  H  H  H  H  H  H  H  H  H 

#matrix
198
 2.812195791675E+03
 -3.754681525385E+00 2.487074710148E+03
 3.717192324179E+00 -1.026188996384E+01 1.824228726501E+02
 4.175089150093E+01 7.143082498494E+01 -3.119882150113E-01 2.956659836261E+03
 -1.545853612130E+00 5.466653739899E-01 2.356316144867E-01 -4.235592265990E+01 2.913803198694E+03
 -5.457623693751E-02 7.787543929967E-02 9.869473319427E+00 5.980542344507E+00 -1.320663777747E+01 1.981964291450E+02
 -2.371493429896E+01 3.837015927124E+01 -6.696772373769E-01 -1.635245875545E+00 3.549029689571E+00 7.958289987339E-02 2.740702388460E+03
 -3.292096477584E+01 6.320949451239E+01 -1.403071988306E-02 -9.485000588006E-01 -3.040978941982E+00 -2.060013874585E-02 1.292421888533E+01 2.520699535080E+03
 6.414796720062E-02 -4.813507834734E-01 7.776540710093E+00 2.293770526919E-02 3.442160064618E-01 -2.027094580280E-01 4.434462278129E+00 -7.859873624699E+00 1.675768807443E+02
 3.928556971504E+01 -7.064668447161E+01 5.307180634676E-01 -1.815291774448E+01 3.442282299074E+01 -1.679514798551E-01 4.443002130079E+01 7.206512623338E+01 -8.435835697090E-02 2.871556860641E+03
 -1.931165896042E+00 1.586546788129E+00 3.562836094229E-01 -3.513421557812E+01 6.024817742100E+01 -3.180575077823E-01 7.163812204811E+00 -1.277851619390E+00 3.307343077273E-01 -4.453622102577E+00 2.872905359659E+03
 5.918122648209E-02 -5.966608769447E-02 1.011393626605E+01 1.038910099630E-01 -2.074569143050E-01 9.787314467136E+00 3.986375830084E-02 5.739818198541E-02 1.021547151126E+01 5.239423559024E+00 -1.103318886782E+01 1.919803531593E+02
 -3.167631314841E+00 -1.132776388463E+01 8.215756071173E-01 2.354784286707E+00 -6.514521369540E+00 -1.021682361787E-01 5.575566005961E+01 -7.887304658855E+01 4.898329203199E-01 -2.870049439716E+01 2.588646537042E+01 -2.547814897165E-01 2.949732052010E+03
 -1.095668585204E+00 -1.037386546715E+01 4.379600574198E-01 -1.863697879455E+00 -9.243595580299E-02 -2.293259835460E-01 1.780001486980E+00 -5.579273602508E+00 -3.286989313417E-01 -3.432648721592E+01 6.018617548868E+01 -2.982523682173E-01 -4.743617934928E+01 2.960307019550E+03
 -1.322543575526E-01 2.713139820777E-01 -2.742626430797E-01 -5.780950734768E-02 -2.097538298411E-01 4.555717798592E-02 -3.121027654724E-01 2.436706806135E-01 7.154149551270E+00 -5.787563990022E-03 -7.501713853745E-01 7.314025631877E+00 6.427495470227E+00 -1.084459622928E+01 1.595359240273E+02
 -1.239269485464E+03 4.543687111918E+02 -3.643380615967E+00 -5.010129297088E+02 -8.807773734234E+00 -5.697827505515E-01 -8.924381873662E-01 1.397598989908E+00 -5.010738699595E-02 -2.119627867979E-01 1.956371985223E+00 2.578138627958E-02 4.191913885699E+00 3.185028053625E+00 3.095683965067E-02 2.985386342383E+03
 4.639587217629E+02 -7.561122405282E+02 3.583429568658E+00 -1.979052870828E+00 -1.513363187275E+03 6.865008805525E+00 -1.676816831123E+00 3.020637483968E+00 -2.395781797530E-01 2.730411940300E+00 9.591178916619E-01 9.205347760750E-03 4.978420207501E+00 -6.867383659910E-01 1.077053176750E-01 3.962505360348E+01 2.920344434658E+03
 -3.525640152802E+00 3.621128462187E+00 -8.293422626548E+01 -7.496902627884E-01 6.712838430210E+00 -8.698172021501E+01 1.223962414591E-01 5.969933949849E-04 4.709429964138E+00 -4.311515379245E-02 -1.588786118538E-01 -9.673247478738E+00 -1.957380545148E-01 -1.302419672784E-01 8.280065630272E-03 3.447808798734E+00 -1.284881004792E+01 1.987367041127E+02
 -1.261345853602E+03 -4.414123960232E+02 1.535079148514E-01 -7.598675941490E-01 -7.526058967988E-01 9.827037881678E-02 -1.247343242010E+03 4.465578655680E+02 -3.337845804011E+00 -4.927550401250E+02 -5.173345335584E+00 -6.371634794641E-01 4.957377803735E+00 6.298077568707E+00 2.670247232379E-01 -1.944881467978E+01 -3.436215774143E+01 1.023598717505E-01 2.889070088138E+03
 -4.586759392813E+02 -7.237950523588E+02 1.885644549144E+00 -3.269439244326E-01 3.485794557636E-01 -7.861862055550E-02 4.610533360824E+02 -7.398978326835E+02 2.981008966701E+00 -1.586780062401E+00 -1.514173931079E+03 5.778417954806E+00 6.091968507081E+00 -1.596228022061E+00 8.771385018237E-02 3.597699730768E+01 6.177509097646E+01 -1.071152849655E-01 9.725960776429E-01 2.855716767208E+03
 1.878310809184E-01 2.031378799821E+00 -8.099019329554E+01 1.322515653686E-02 -3.725965830379E-02 -9.753017332532E+00 -3.426107593444E+00 3.060911324644E+00 -7.939418078158E+01 -7.073522186330E-01 5.697583825777E+00 -8.392938864270E+01 -1.505204074092E-01 -1.418986700646E-01 -9.835790966558E+00 -2.008323050780E-01 -2.905681663837E-01 9.368947159945E+00 3.866545504344E+00 -1.062762437434E+01 1.899216813725E+02
 1.169170086071E+00 -5.058525828010E-01 -4.154229139279E-02 -1.258640550518E+03 -4.541131179019E+02 -4.129416470996E-01 -7.603916428378E-01 9.290543701539E-01 -3.325424005019E-02 -1.242563613040E+03 4.678008837235E+02 -4.202905099110E+00 2.346516948473E-01 1.104013058972E+00 -1.284474795855E-01 3.863858503609E+01 -1.272410290455E-01 9.853773865158E-02 4.289233867929E+01 -1.311034623660E-01 8.310056198082E-02 2.808119153369E+03
 8.398216249530E-01 3.911424561035E+00 6.157314856456E-02 -4.422136193999E+02 -7.316962225824E+02 2.076885087864E+00 2.547685360977E+00 -3.275355878126E-01 3.419692434899E-01 4.516615997613E+02 -7.472830069698E+02 3.713290484028E+00 3.059337548280E+00 8.261227247685E+00 -1.097812568254E-01 -7.256309688591E+01 2.331055323089E+00 -1.503571964801E-01 6.895799662269E+01 1.104921006232E+00 1.915722929172E-01 2.019165342469E+00 2.477945412028E+03
 3.991605023501E-02 -2.163283762030E-01 -9.642137434988E+00 -3.248711025416E-01 2.218314478388E+00 -8.168881886394E+01 5.849799195084E-02 3.621358473645E-03 4.972858119400E+00 -4.252135932350E+00 3.818133607015E+00 -8.097005907469E+01 -2.129782455981E-01 -1.357994908586E-01 4.837078763579E+00 3.901977766850E-01 -1.684292738563E-02 1.014658740189E+01 -1.320539551427E-01 8.673532841521E-02 1.080374894029E+01 5.159328939892E+00 -1.054369101660E+01 1.849260540411E+02
 3.591975490036E+00 -1.498390019271E+01 -1.383703915791E-01 3.105938328217E+00 9.504565129139E+00 -8.465823288018E-02 -1.215163912924E+03 -4.494415337775E+02 -1.873178608491E+00 5.349295875878E+00 4.925907532829E+00 2.317966842502E-01 -5.934556733150E+02 2.854643693099E+01 -9.059309555309E-01 -2.590149401614E+00 -1.009452515317E+01 1.080793919831E-01 -1.417127660743E+01 -3.496283124275E+01 1.229924902481E-03 -1.920841985446E-01 8.498989900767E+00 -3.157384282880E-01 2.792680621240E+03
 7.656928234530E+00 1.650885049525E+00 -1.395863127383E+00 4.816061762730E+00 1.199991947851E+01 3.404414794167E-01 -4.621912728521E+02 -7.565271699969E+02 3.102165675553E-01 2.473861654051E+00 8.489892273072E+00 3.751538048883E-01 7.033265879138E+00 -1.480726414358E+03 4.946211761958E+00 -7.927865620795E+00 -1.277668567268E+01 5.401991481517E-01 3.746737472104E+01 6.052017108931E+01 1.136028817613E-01 -2.394130952137E+00 -1.116853569023E-01 -3.310618313143E-02 2.689303022865E+01 2.736045728004E+03
 -7.802200547772E-02 -6.702459227700E-02 5.228814539254E+00 -4.273998668136E-03 1.004448197695E-01 -1.008859339246E-01 -6.325962938067E-01 1.495688777636E+00 -6.669371261950E+01 1.178141948801E-01 2.427671259407E-01 -9.573266983055E+00 -1.631581317848E+00 6.635412985659E+00 -6.462369661837E+01 -3.771520323861E-03 -3.977085334759E-02 3.155243906154E-04 -2.604335484508E-01 -3.286037246394E-01 6.283572360657E+00 -3.054475952938E-03 5.507101083349E-02 1.484268101505E-01 5.627736956341E+00 -1.044181410776E+01 1.373338158608E+02
 3.562915296558E-01 1.131663807141E+00 -5.193598056549E-01 -2.631236980743E+00 2.850957238592E+00 2.911694827330E-02 -1.545432533896E+00 5.351839824455E-01 -1.386220939782E-01 -1.241821317595E+03 -4.582594685179E+02 -3.659667784477E-01 -1.208073422861E+03 4.487194101467E+02 -4.049501290279E+00 -3.771604920157E-01 -3.594186353217E+00 1.483825877945E-01 4.089512190365E+01 -5.259617638878E+00 1.687319133033E-01 -2.663448329650E+01 -3.162220855412E+01 1.003167427101E-01 3.757652795457E+01 -1.325727514623E+01 -7.713657081721E-02 2.791057560400E+03
 -3.387487586629E-01 6.068566859713E+00 -3.937465774682E-03 -3.340295200696E-01 -2.184076201681E+00 3.607444385761E-02 1.977193716367E-01 -8.522016647559E+00 6.007009649913E-01 -4.501995522576E+02 -7.381354586403E+02 1.712053566782E+00 4.764422030837E+02 -7.978148533547E+02 3.879447578903E+00 -3.061113346774E-01 3.091794790444E+00 -3.021024648185E-02 -7.611794557403E+01 -6.764241014675E-02 -7.136495605305E-02 3.383428993423E+01 5.837659311586E+01 1.934955197147E-02 9.606259236800E+01 1.641777370473E+01 -1.568127129527E-01 -4.034699085093E+00 2.515138080562E+03
 1.012463332602E-01 4.319253259093E-02 5.000636898829E+00 2.569084133843E-02 7.364791011974E-02 4.867163633515E+00 -1.175235524901E-02 -4.850802072675E-02 -1.018841018455E+01 -2.565281223098E-01 1.915094349339E+00 -8.139101047625E+01 -3.760437574711E+00 3.721964040340E+00 -7.680411723752E+01 -3.588542488375E-02 -3.047951243123E-02 -1.765064008010E-02 1.825738326864E-01 3.486815585955E-02 1.079854417986E+01 -2.673239698859E-01 -3.386730792970E-01 5.861884346007E+00 -2.641253563187E-01 -8.160634446863E-02 1.044290677264E+01 4.790369006980E+00 -9.587536907835E+00 1.762484449813E+02
 -1.433017235373E+00 3.876793238210E-01 2.690382981147E-01 3.451944703517E+00 -1.296949897867E+00 4.014511839616E-02 6.387514222696E+00 1.787274774378E+00 1.045867282974E-01 -4.722714279694E+00 -3.498225297779E+00 -3.160585202288E-03 -8.944871095676E+00 3.616321473826E+00 -1.224882333046E-01 -2.283359881085E-01 9.277328718838E-01 -8.975167933332E-03 -1.302795553236E+00 3.123409508222E+00 -8.668385303991E-03 -5.023051300219E-02 -2.786395589633E+00 8.722678003658E-03 -2.748121716925E+00 -4.648326121323E+00 6.426465924841E-02 6.894210696831E+00 1.146730295762E+00 3.477538303025E-02 2.799048164062E+03
 -1.462702365741E-01 -3.417933732827E+00 4.857570569483E-03 -2.118135544720E-01 8.122056087157E-01 1.660342848521E-02 -5.868571308982E-01 -9.361064495419E-01 -2.899079177785E-01 6.543353090352E-01 6.318576293452E-01 1.308438374861E-02 -5.749053718627E+00 -6.321969339392E+00 2.224538509349E-01 8.389322994525E-01 -4.393728125459E-01 7.256932348253E-02 1.267567705287E+00 -2.030189869310E-01 -1.145240145650E-02 1.870254226121E-01 2.806977624207E+00 -1.102966860405E-01 -6.336558332037E+00 2.982941531845E+00 -8.965958488298E-02 -4.658821653191E-01 3.105564373485E+00 -7.790380496300E-03 6.899667341889E-01 2.486492821338E+03
 -7.146641558961E-02 -2.033219280202E-01 4.126659402646E-01 3.979119749558E-02 1.507082595765E-01 -5.708626561613E-02 1.420597074579E-01 -4.333937788715E-02 3.411334873928E-01 4.869684673011E-02 9.946749326701E-02 -6.353376108063E-02 -2.372160959770E-01 -1.161534293727E-01 -6.940055723650E-02 -1.691279591000E-02 -1.016129492770E-01 5.072262127726E+00 6.697019720263E-02 -4.584443409888E-02 -1.539154705116E-02 -1.247305321395E-02 1.779377093032E-01 4.365266454113E-02 -6.108675284152E-01 -5.587370300381E-01 1.504972117627E-01 2.969605169314E-02 3.498051873093E-01 9.689008712939E-03 4.017967305749E+00 -1.432594781122E+01 1.784747507544E+02
 3.515280851283E+00 2.352632429474E+01 -1.421931158867E+00 -1.559035782058E+01 3.399475162190E+00 -2.190889809852E-01 -3.669439500191E+01 -1.092277057860E+01 1.292292112402E-01 1.763605855371E+01 1.485241072389E+01 -2.848205008683E-02 5.770537460709E+01 1.081417494340E+01 -3.831779349428E-01 -2.112207341231E+00 -2.199756078104E+00 2.322369512830E-01 -3.419389081480E+00 -1.599270683522E+01 2.607485633320E-01 1.455570763194E+00 -3.806405214113E+00 3.332066423043E-01 6.991377861969E+01 3.527557316329E+01 -1.857043994159E-01 -3.282083274082E+01 -3.123544463439E+01 2.239426656309E-02 7.267687299806E+01 8.414617099316E+01 -2.560570648800E-02 3.022603133893E+03
 -5.330353104898E+00 -1.800043633002E+00 -2.349424620501E-01 -1.523031802198E+01 -9.369070400201E+00 -5.111618275162E-01 -1.631657104031E+01 -5.100127089408E+01 5.019464572581E-01 1.126751459449E+01 8.631638806566E-02 -2.322212797589E-01 -9.605591816817E+00 -4.988339893728E+01 1.176841323843E-01 9.030394336957E+00 8.847343728090E+00 -1.204885614980E-01 3.306744917431E+00 -9.197134603310E+00 4.992092190766E-02 2.759086163947E+00 1.199857467741E+01 5.362907480725E-02 9.393536936780E+01 1.937355819135E+02 -4.674759414904E-01 -4.180554043386E+00 -1.810509628579E+01 3.108572366812E-01 3.153579230834E+01 -6.305628222004E+00 4.500034753287E-01 -2.511820194117E+02 2.851949783499E+03
 1.013815873215E-02 2.194173505437E-01 -2.389288932556E-01 9.718235316884E-02 6.949486323445E-02 1.960764440416E-02 -6.074725552462E-02 4.955939993343E-01 -1.704824701501E-01 -4.536720051998E-02 3.406740515901E-02 3.533204847632E-02 4.979518325514E-01 5.917619045611E-01 3.932039209703E-02 -1.070035645435E-01 -9.196068078451E-02 1.530177262966E-02 -8.342747076770E-02 3.913202366578E-03 -4.954888877859E-03 -6.318335086227E-02 -2.210487770923E-01 -4.009506029430E-02 -5.323415013230E-01 -1.882808570310E+00 -4.565738136410E-02 -1.439934186317E-01 -8.669352437069E-02 -2.310690573671E-02 -1.830313375831E-01 2.590327067095E-01 9.182008555080E+00 8.248593924377E+00 -2.036077357674E+01 1.836819541109E+02
 -2.693929246858E+01 -3.537096530777E+01 2.499480259699E-01 4.279461045750E+01 -1.157936213816E-02 -1.393831317365E-03 -1.081157391069E+00 1.451510677690E-01 -7.232640697331E-02 -2.754689344565E-01 -8.193452191829E-01 -3.994854288297E-03 -2.534242098381E+00 -1.046073116795E+00 -2.872559389441E-02 -1.354778134484E+03 -5.016857318454E+02 7.824023403045E-01 -3.438889423249E-01 -1.822858883119E-01 2.445252265745E-02 7.811452360507E-02 1.923928479770E-01 -2.783262687136E-02 1.045693152434E+00 4.077902668530E+00 -4.689249852480E-02 -2.505787826513E-01 1.465093526384E-01 4.732548916852E-02 -2.477359694652E+01 3.551429152245E+01 -3.088241000939E-01 6.000927465209E+00 -1.036087385027E+00 -2.960848736697E-02 2.904027200797E+03
 3.714079708357E+01 6.127032094659E+01 -1.063814791609E-01 -7.621827403093E+01 9.422916374511E-01 -1.048865527629E-01 1.868684471630E+00 -2.579943972832E+00 -2.623237856377E-01 -4.110058643148E-01 -2.478269137238E-01 -1.540195520041E-02 -1.396589349554E+01 -1.117170691786E+01 2.453176187941E-01 -4.839103914195E+02 -7.797733402359E+02 2.797396222379E+00 2.262267858570E+00 2.949642560997E-02 -6.478980180697E-03 3.008070142153E-01 2.788136811364E+00 -1.163096974390E-01 -6.384583471044E+00 1.286154991645E+01 -1.029344683334E-01 2.274399222340E+00 3.980275049414E+00 3.580999702916E-02 -3.378894604154E+01 5.692617893420E+01 -5.560108612815E-01 2.110129401896E+01 -1.346361635604E+01 3.445547434923E-01 3.517046993292E+01 2.524696942529E+03
 -1.748622203077E-01 -2.617997648668E-01 8.245414695821E+00 4.722045361274E-01 2.821324022574E-01 1.147291991754E+01 -3.154716971537E-01 1.311092771205E-01 1.030424828823E+00 1.596682755443E-01 2.405505755374E-01 -2.291049260255E-01 4.885042191211E-01 4.049080208962E-01 -2.448119211273E-01 5.816671370778E-01 2.538927429046E+00 -8.640814788946E+01 -8.733050644869E-02 -1.022879358039E-01 5.162897891934E+00 -1.069756463251E-02 2.385390680330E-01 5.244017765350E+00 -2.997328489311E-01 -1.384185515667E+00 3.779305547584E-01 -3.512103480828E-01 1.572879593382E-01 1.056852065505E-01 2.519575574501E-01 -3.931076156835E-01 5.874112992414E+00 -4.572873693057E-01 5.212485621189E-01 -1.667173201198E-01 4.021240619945E+00 -1.216689059687E+01 1.863998164906E+02
 7.271163089643E-01 -4.567063935891E+00 -2.270352884720E-01 -2.338537298726E+01 -3.434670082034E+01 1.752344307005E-02 -2.173368853905E+00 2.683483685203E+00 -5.290399784765E-01 4.812322646075E+00 3.937247299322E+00 7.927290639195E-02 1.298526121438E+00 -8.115554494819E+00 1.014147673072E-01 -1.353429651147E+00 -2.395131506833E+00 7.904607269445E-02 3.637988463792E+00 -2.508352777580E+00 9.571007730783E-03 -8.705232559149E-01 4.875835360623E+00 -1.331353223247E-01 -1.464782944432E+01 -5.255462442271E+00 -1.608245228989E-01 -4.746638540992E+00 5.677668598940E+00 7.378724070482E-02 4.872470000935E+01 -7.335541458232E+01 2.397114932392E-01 -2.809380481868E+01 2.581898142616E+01 -1.517105798076E-01 4.348916150313E+01 6.873402683414E+01 -5.438237123797E-01 2.918178408201E+03
 -4.077589995995E-02 -1.364911923008E+00 3.153165500268E-01 4.087936368905E+01 6.381673140546E+01 -1.736758213403E-01 6.623748665547E+00 1.023780916029E+00 1.541884309648E-01 -4.024051130766E+00 -3.302057629628E+00 -2.673579624343E-02 -1.084928392604E+01 2.322543150831E-01 -5.009197549272E-02 1.573028026230E+00 4.433363850562E-01 -9.941140482497E-02 -5.510934980549E-01 2.828197459128E+00 -3.542596122939E-02 2.938931470770E-01 -1.872328521295E+00 2.792601663307E-02 -4.420363493618E+00 -2.115437890576E+00 8.070936863574E-02 6.055353380797E+00 2.117409825900E+00 2.157673345454E-02 -6.727068821646E+00 -1.471951788283E+00 1.065243696262E-01 -2.270384121305E+00 8.713918906996E+01 -4.132524516741E-01 -1.447411694230E+00 -1.714611585593E+00 2.091622475549E-01 3.188693113118E+01 2.856559421709E+03
 -9.193453076127E-03 3.817656903714E-02 -9.684487028451E-02 -2.248621785462E-01 -2.604349826431E-01 9.649703717716E+00 -1.088431015971E-01 -1.000350436101E-02 -3.867181324743E-02 5.486473438939E-02 8.394089439543E-02 -1.733190462794E-03 1.494324664230E-01 7.670597193948E-02 -8.094546542098E-03 4.124094348910E-02 -1.301938650742E-01 -1.025487762587E+01 -2.981206562477E-02 -6.292383455974E-02 -1.633947299591E-02 -4.427417016446E-02 6.092159177819E-02 5.062713039751E+00 3.347696007087E-02 -1.852505845680E-01 1.285616786143E-03 -1.108527579170E-01 -1.054625473976E-02 2.018945178303E-02 8.231485481110E-02 -2.054486637481E-01 1.049220256583E+01 2.167236872380E-01 -3.616088247427E-01 5.428557473782E+00 -3.997407756051E-02 1.858295615743E-01 1.153271463446E+01 7.258482009778E+00 -1.562581960940E+01 2.035421517391E+02
 5.729484418615E-01 3.094558287148E-01 8.503507578773E-03 1.566843921820E+00 1.917168079871E+00 8.167160745481E-02 1.519167998913E+00 3.626522906387E+00 7.758115849339E-02 -1.382912372490E+00 7.097919825216E-01 1.369209637757E-02 8.254024278922E-02 6.584169782956E+00 -6.753823226432E-02 -3.258503138964E-01 -1.212683347492E+00 1.320904456602E-02 -9.543492516491E-01 5.982628014477E-01 6.210018437559E-03 1.092343589213E-01 -6.594848699253E-01 3.298743542979E-02 -7.568890151421E+00 -1.983742269258E+01 6.802309160621E-02 2.689135168282E-01 2.158931200838E+00 -7.077352117403E-02 -1.248284019811E+03 4.506428904064E+02 -4.470982598756E+00 -5.365080922079E+02 -4.343503260490E+01 -6.842605288421E-01 -8.948821800322E-01 9.460975826051E-01 -7.692348327696E-02 2.271574689609E-01 -4.080921223450E+00 -1.369604432989E-01 2.794789318640E+03
 -1.309167892553E+00 -4.510947082537E+00 7.128683836005E-01 5.478110136846E+00 -2.062499781927E+00 8.147466314101E-02 1.309899828834E+01 9.085233230868E+00 7.901154718678E-02 -8.032905118535E+00 -6.636337368476E+00 -2.497949509889E-02 -1.694392547089E+01 2.273590794084E+00 1.403100709726E-01 2.769186032356E-01 2.412062178415E+00 -1.537708302475E-01 1.849543747861E-01 6.820653300387E+00 -1.255182724414E-01 -7.094278031524E-01 -3.813431112735E+00 -9.820224591415E-02 -2.503219056860E+01 -2.583235584395E+01 1.999651862242E-01 1.208155861936E+01 6.875756271259E+00 1.402018372335E-02 4.559949066104E+02 -7.346081930432E+02 4.767762595618E+00 5.535975683207E+01 -1.436485312114E+03 9.912324341082E+00 -6.531292480413E-01 -3.894482247480E+00 3.243597443263E-01 3.272757330962E+00 -1.063318628453E+01 1.025292735223E-01 -3.133914149057E+01 2.797171694907E+03
 8.264160297281E-02 -9.860593050335E-02 2.154870185720E-01 -7.373318838129E-03 8.790015075366E-02 -3.088871512555E-02 -6.708543350620E-02 -6.746820090384E-02 1.344572410127E-01 7.549532268658E-02 1.027246076734E-01 -3.014815227328E-02 -2.400532200132E-02 -6.134382703724E-02 -3.959262503594E-02 5.857715011088E-03 -7.486835713750E-02 -2.492828449649E-02 3.261116137258E-02 -3.650301771002E-02 -5.531533517448E-03 3.812242246059E-02 1.605250626866E-01 2.349203515532E-02 -5.233979339484E-02 1.234081546507E-01 4.798326243216E-02 -7.217884226091E-02 1.391284761703E-01 2.886170046253E-02 -4.577840768940E+00 4.793236629968E+00 -8.257539246368E+01 -9.433374040835E-01 1.031842573763E+01 -7.796668799460E+01 3.276505411835E-02 -6.197234796844E-02 5.030839043988E+00 -1.123797290694E-01 -5.683769540994E-02 -9.457424672084E+00 3.666017120981E+00 -1.835046765989E+01 1.850468569159E+02
 5.575752924563E-01 -3.563356324039E-01 -2.157712110866E-01 -1.336308162293E+00 1.404041835663E+00 -1.298118818265E-02 -3.221521346460E+00 -8.762581059576E-01 -1.610629946662E-01 2.187019421685E+00 1.859406530162E+00 1.961283320568E-02 3.864953756814E+00 -2.046238313689E+00 5.644554313485E-02 -2.157073581460E+01 3.717225267557E+01 -2.273366885766E-01 1.090605588176E+00 -1.561272076428E+00 1.341387658372E-02 3.450788295965E-01 1.730349135140E+00 -2.609207626812E-02 2.132913046099E-01 2.273806899261E+00 -8.423993613211E-02 -2.997475755187E+00 -3.315739391689E-02 -3.312473718201E-03 -1.251365519259E+03 -4.480059757837E+02 7.261488731463E-01 -1.451036886823E+01 -1.381125947908E+01 2.086273876883E-01 -1.236299289476E+03 4.536139046484E+02 -4.323504041772E+00 -4.969770045874E+02 5.789771513740E-01 -6.717338327670E-01 -1.870136550237E+01 -2.838933391418E+01 9.147380119322E-02 2.877019954539E+03
 1.604000875916E+00 2.108596729091E-01 -2.820294867915E-01 -8.888470181531E-01 6.815711829008E-01 3.805766183561E-03 -7.050809481338E+00 2.210507602042E+00 -2.252353793930E-01 5.277951325282E+00 4.597454611264E+00 5.774399494921E-02 1.498057421410E+01 1.378637896576E+00 6.174591249380E-02 -3.978595546104E+01 6.205024353721E+01 -2.840846679748E-01 9.633257004115E-01 -2.994964157595E+00 3.755064933610E-02 -6.724539150035E-01 3.365848685065E+00 -8.517740706755E-03 -4.427949038373E+00 -1.211730786852E+01 -5.193716448742E-02 -7.888492362252E+00 6.198743106758E-01 -4.621427636078E-02 -4.560294348778E+02 -7.325211280579E+02 3.051794972833E+00 -3.116702003943E+01 -5.489730153652E+00 -7.182366674101E-02 4.736215646009E+02 -7.504638281058E+02 4.174103762741E+00 -5.636876131882E+00 -1.509617781592E+03 8.349712529966E+00 3.722149240253E+01 7.515171305359E+01 -3.733939091008E-01 -9.477346207927E+00 2.866771547415E+03
 1.862497123907E-02 -5.813359460985E-02 5.082665587060E+00 2.433769854103E-02 -9.933427961692E-02 -1.016836493792E+01 1.408603878315E-01 -6.586089647977E-02 -5.693103533691E-02 -3.416744942350E-02 -5.790621996437E-02 1.758499279040E-02 -2.680503713878E-01 -1.588273112031E-01 -9.664555812527E-03 1.402427530293E-01 -2.040089025067E-01 1.037941999268E+01 2.507764950204E-02 4.178943968027E-02 3.532872719514E-03 2.754962052446E-02 3.139290561324E-02 -9.137572406199E-03 -3.663951892125E-02 3.921306352733E-01 8.324690850832E-03 1.282882874885E-01 7.357668541589E-02 -1.214602515536E-02 9.079583273150E-01 3.124160024717E+00 -8.050352293938E+01 3.730547365907E-01 -1.113861101227E-01 -1.061696427474E+01 -4.378334307388E+00 4.308642434993E+00 -8.258438586370E+01 -9.391964415595E-01 8.209968970107E+00 -8.715377965969E+01 -2.794884937249E-01 -5.868263709912E-01 1.033026552469E+01 4.197741784666E+00 -1.537162011984E+01 1.949397101879E+02
 -1.938362495575E+00 -4.000516239567E+00 8.471168438192E-01 5.992369878444E+00 -2.204336713192E+00 1.304214351045E-01 1.258928373889E+01 3.036295213805E+00 3.620172493106E-01 -8.698645124670E+00 -6.342971166584E+00 -8.261210633551E-02 -2.426175355086E+01 5.222386402912E-01 1.291965784081E-01 9.460563464121E-01 2.716297457601E+00 -1.643465261796E-01 -1.488498856182E+00 6.053025050178E+00 -1.190349414907E-01 -6.256538388651E-02 -2.553808728161E+00 -5.069399369050E-02 -1.552987526919E+01 -1.197061957984E+01 2.547130401646E-01 1.290286064434E+01 5.945876222792E+00 -3.441948642938E-02 -1.578831346609E+01 -3.430274421778E+00 -1.514766996969E-02 -1.213482025038E+03 -2.616114930230E+02 -2.453375684687E+00 -2.594763797278E+00 -4.850906758143E+00 3.520032572435E-01 -1.307407185620E+03 3.605552441433E+02 -5.851225266207E+00 3.605213184825E+01 -3.012630134502E+01 6.285747677695E-01 4.699061209210E+01 1.135112279576E+01 -2.406302527047E-02 3.047363912187E+03
 -2.403414441548E+00 -2.216306843538E+01 7.249250153826E-01 7.920015926765E+00 -1.759555516353E+00 1.513350396688E-02 2.281763433655E+01 7.624853364262E+00 -7.000779318679E-01 -7.887359213464E+00 -8.643036664427E+00 8.602421101019E-02 -4.069536586691E+01 -2.169320249150E+01 4.490239088453E-01 2.031820314603E+00 -2.088740597254E-01 -1.009459013550E-01 7.399086313397E+00 9.587740068389E+00 -1.864006741660E-01 -1.201791311678E+00 7.556829425290E+00 -3.849770388353E-01 -5.914529497931E+01 -1.318868357648E+01 -1.084084263347E-01 1.944611890667E+01 2.606540174158E+01 9.865913288022E-02 -1.816216572769E+01 -8.262825062924E+00 -6.891449698477E-01 -3.045782816281E+02 -7.716745755426E+02 4.905398048241E+00 -3.049607325771E+00 -1.888284890612E+01 2.087280482402E-01 4.124603158734E+02 -7.688733107401E+02 5.603914163682E+00 -8.161410839148E+01 -4.686872029564E+01 -3.035680853731E-01 7.825653998773E+01 1.496863294521E+01 -1.747741603249E-02 -9.401138596086E+01 3.036913128654E+03
 -9.906860294997E-02 3.881283047139E-01 4.884164442147E-02 -1.096313974555E-01 -2.697088798686E-01 5.198739984229E+00 -1.306527644806E-01 8.080675284166E-02 3.169795780805E-02 -5.139335550027E-02 -1.596787677595E-01 -1.528811190097E-02 4.249899580061E-01 2.675222257709E-01 9.572163241982E-03 -9.359551794305E-02 2.342583328269E-01 -5.773665720498E-03 -1.172522645613E-01 6.688834438771E-03 -4.719735523751E-04 -4.200620031464E-02 -3.523871538791E-01 -1.887938303196E-03 7.979717604481E-01 2.250558900403E-01 -3.319918430849E-03 -4.863217941010E-02 -5.437589296310E-01 8.413702148985E-04 1.163813877315E-02 7.706042815241E-01 -1.064898568551E+01 -1.850916340363E+00 4.308599658972E+00 -8.512513311651E+01 1.483985148271E-01 3.705900918004E-01 4.892846044929E+00 -5.357127432901E+00 5.254190831522E+00 -8.505207839480E+01 1.125478575057E+00 2.316547229223E-01 6.257364576959E+00 -8.469744710841E-01 -1.698364889942E-01 5.665927490457E+00 8.779599155668E+00 -1.976423385509E+01 1.972084349915E+02
 -1.281630447138E+00 1.490258123639E+00 2.896520893327E-01 -1.305669564678E+03 5.011695722774E+02 -5.036747763074E+00 6.837471603338E-01 -2.982245809761E+00 2.709077220547E-01 -3.587085052057E+00 -3.054237761665E+00 -1.001378358847E-01 -5.682127991378E+00 5.241174649375E-01 8.421149837862E-03 4.558665495708E+01 1.879450782438E+00 1.923206742737E-02 -1.242625199468E+00 2.145341333366E+00 -2.755015423493E-02 -2.752981539880E+01 3.402683074905E+01 -2.304266995583E-01 1.147620368417E+01 1.454371710611E+01 6.847925257458E-02 2.082595370520E+00 -4.715146441737E+00 1.052022969030E-02 -3.588147073999E+00 1.202988103042E+00 5.972380258569E-02 7.525322043549E+00 -7.315071828520E+00 6.981659755296E-02 -1.989687809156E-01 3.447012457642E-01 1.870411010572E-01 -1.251865863031E+03 -4.645554014321E+02 -5.464156160425E-01 6.847256123240E-01 -3.328518731276E+00 4.819223662791E-02 4.118026102984E+01 5.084957228296E+00 3.331410191541E-02 -2.390627293738E+01 -3.672120096190E+01 1.179461876651E-01 2.886682672736E+03
 1.124983721943E-01 7.369268687264E+00 -8.044880733051E-02 4.887035045595E+02 -7.968455000277E+02 4.533579252078E+00 -3.249819730552E+00 -4.946490945781E+00 4.909224389022E-01 -6.849204003859E-01 -4.495385628596E-01 -2.177019227827E-02 1.277473693999E+01 1.001075930211E+01 -2.621492373882E-01 7.402652359238E+01 2.359650726749E+00 2.021119211722E-01 -3.120057890481E+00 -6.476325954885E-01 4.271771228853E-02 -3.343240835546E+01 6.156031269031E+01 -2.027798134025E-01 2.541357871566E+01 1.206321785360E+01 7.373436899311E-02 -1.605963570421E-01 -9.170831840699E+00 -2.503882111167E-02 2.567772684128E+00 3.533714847135E+00 3.697719387864E-01 -4.210125935323E+01 -2.086352591387E+01 -3.853389340854E-02 5.158854008011E-01 4.302529232409E+00 8.863082262603E-02 -4.360925342185E+02 -7.272961413785E+02 2.331097122758E+00 1.794463270513E+00 1.028332691788E+01 1.051535062746E-01 -7.193671830216E+01 6.706853622096E-01 -4.048297959501E-02 4.333498195374E+01 9.622648523433E+01 -7.069901522418E-01 -1.525616500570E+01 2.541024519137E+03
 1.544020423191E-01 -1.028788841240E-01 5.462253070320E+00 -5.124625187243E+00 4.565368038729E+00 -8.540800868236E+01 1.805134521647E-02 5.889498948422E-02 9.819216688600E-02 -5.370052516374E-02 4.016581473954E-02 5.124236963100E+00 -2.081223036876E-01 5.937463615529E-02 -2.337069078755E-02 -2.558282144936E-01 9.989787380619E-02 1.203069995148E+01 -4.384972318706E-03 7.556597748693E-02 9.076687963420E-03 2.443178460330E-01 -9.127288083628E-02 6.272056474861E+00 -1.611300374683E-01 1.632269003181E-02 6.520318579503E-02 8.039964100852E-02 1.792471380477E-01 2.059268082094E-02 -4.913929083008E-02 -1.156432361121E-01 4.820216642631E+00 9.328220150299E-01 8.280370087143E-01 5.512054507314E+00 1.794678025944E-01 -1.969474300821E-01 -1.007728502899E+01 -4.658362854751E-01 2.371727003628E+00 -9.142857574649E+01 -1.052400750891E-01 -3.563423083383E-01 -8.495569751005E-02 5.138522574108E-01 4.124762934203E-02 1.051416309060E+01 -7.505283197051E-01 -8.693461743294E-01 1.477140841839E+01 6.374161269433E+00 -1.222538132888E+01 1.907759916090E+02