#BIOSYM hessian 1
@Type: Hessian Update
@Units
 distance: 	A
 energy: 	Kcal/Mol
#header
@natom 67

#label
C1      C2      C3      C4      C5      C6      C7      C8      C9      C10     C11     C12     C13     C14     C15     C16     C17     C18     C19     C20     C21     C22     C23     H24     C25     C26     C27     C28     C29     C30     C31     C32     C33     C34     C35     C36     C37     C38     C39     C40     C41     C42     C43     C44     C45     C46     C47     C48     C49     H50     H51     H52     H53     H54     H55     H56     H57     H58     H59     H60     H61     H62     H63     H64     H65     H66     O67

#element
C  C  C  C  C  C  C  C  C  C  C  C  C  C  C  C  C  C  C  C  C  C  C  H  C  C  C  C  C  C  C  C  C  C  C  C  C  C  C  C  C  C  C  C  C  C  C  C  C  H  H  H  H  H  H  H  H  H  H  H  H  H  H  H  H  H  O 

#matrix
201
 2.792850464489E+03
 -1.220079140076E+01 2.809985750406E+03
 -9.328491847134E+00 -1.670930961562E+01 1.927285476285E+02
 3.887550282000E+01 6.656057341760E+01 -1.385595598285E+00 2.790439145445E+03
 9.722573751788E-02 -6.663146989866E-01 -1.956166010597E-01 -2.437723613893E+01 2.768757394581E+03
 -7.855802217970E-01 -5.778762383357E-01 8.363269845461E+00 4.322113299556E+00 -3.834738503618E+01 1.914383374647E+02
 -1.953970985455E+01 3.452760042414E+01 -1.475635475639E-01 -2.104625611633E-01 2.917862506597E-01 -1.049196683658E-01 2.819671045894E+03
 -3.343734093651E+01 5.964716533044E+01 -4.536015500479E-01 1.331695173794E-02 1.051173214098E-01 1.333559250514E-01 3.192176279213E+01 2.763037305879E+03
 -1.565277931934E-02 -4.662084216679E-01 8.596031636500E+00 -3.210160082579E-01 2.772850308389E-01 5.414892909451E-01 -3.792983880015E+00 -1.923754370268E+01 1.902814266222E+02
 3.623904642303E+01 -6.692081327851E+01 9.120596110894E-01 -1.945384419358E+01 3.525376515533E+01 -2.464441687073E-01 4.050237751054E+01 6.890801824403E+01 -1.094121087935E+00 2.800023696809E+03
 -9.988804217243E-02 3.355953077819E-01 1.748117377437E-01 -3.263991504353E+01 5.853285719966E+01 -3.438091537741E-01 -4.295738595663E-01 -7.858091647087E-01 -7.481734907920E-03 7.948137035089E+00 2.802829522462E+03
 5.778092454750E-02 2.117205526523E-01 8.716257393650E+00 4.012452841154E-01 -5.561466188917E-01 8.950938324631E+00 -2.527563112841E-01 -1.024178827072E-01 9.899982498719E+00 -2.117148538148E+00 -2.646013446829E+01 1.944047572442E+02
 -5.081941341369E+00 -4.448039497968E-01 5.703943473981E-01 -3.712949270163E+00 7.502663210386E+00 -5.706851007273E-01 4.884786685011E+01 -8.371211259747E+01 8.817252419346E-01 -2.681200663723E+01 3.910500106270E+01 -2.201674287933E-02 2.755848634421E+03
 -7.675365813765E-02 -8.427074130480E-01 -2.576722465763E-01 -3.827371190280E-02 1.937645318734E+00 3.022343472992E-01 -6.039544837900E-01 4.422035572338E-01 1.457334120413E+00 -3.486287535334E+01 6.270079459034E+01 -1.859968249676E-01 -9.959542843080E+01 3.154119046368E+03
 -3.079929674491E-01 3.329285817595E-02 -4.291251209139E-01 -3.689852289995E-01 1.814888493589E-01 5.943372762342E-01 -9.642016804131E-02 2.268050016216E-01 1.292651964260E+01 6.258345991727E-02 -7.042832066047E-01 9.440335251575E+00 -2.812156872526E+00 -2.734177492838E+01 1.649842585561E+02
 -1.220306017370E+03 4.423179282524E+02 2.692872144314E+00 -4.615029605330E+02 -1.132037396197E+01 2.487061811729E+00 -8.595945522146E-02 -1.374582787945E-01 -3.310692069477E-02 6.631707543090E-02 -5.692385624541E-02 -5.634090071242E-02 2.186378388941E+00 1.726732787046E-02 -3.998166169880E-03 2.819135200644E+03
 4.364172954188E+02 -7.359875195690E+02 5.101737445066E+00 -9.484060984363E+00 -1.431132742219E+03 1.918982644384E+01 -3.787617652642E-01 -1.297696151951E-01 -4.729949814345E-01 -3.497459084684E-01 1.070286195523E-01 -1.679150540856E-01 -4.841636072228E+00 -4.694576191669E-01 -4.874422684267E-01 6.541388584486E+00 2.773668766802E+03
 1.876595803703E+00 3.884243783705E+00 -8.317584718782E+01 2.717871350659E-01 1.929043507959E+01 -8.030869758302E+01 2.479381470610E-01 1.287253457692E-02 6.320006392133E+00 -4.288573853173E-01 -3.522704958456E-01 -8.756836327144E+00 3.979011354589E-01 1.417960551027E+00 1.731925114463E+00 -2.201381625191E+01 -3.599283870311E+01 1.938673158748E+02
 -1.210601539644E+03 -4.167348184893E+02 6.210851450197E+00 3.415618903897E-01 -4.488367582128E-01 1.725603419621E-01 -1.242326645192E+03 4.427681198779E+02 -1.198847442551E+00 -4.692529820029E+02 -7.093896788661E+00 6.514642942396E-01 5.412712083368E+00 -1.683363146055E-01 3.800640075144E-01 -1.940308206072E+01 -3.196105680388E+01 4.327048890605E-01 2.808997690959E+03
 -4.143166592321E+02 -6.968849312319E+02 5.613055463320E+00 2.054735071442E-01 -1.729535519847E-01 -4.107020684143E-01 4.512038922180E+02 -7.372436609937E+02 4.742174024528E+00 -1.015860332167E+01 -1.456485943247E+03 1.300602098670E+01 2.691133335513E+00 5.143885718305E-01 -1.949106493157E-01 3.459111182690E+01 5.891350782254E+01 -1.526118176828E-01 -2.042151636034E+01 2.770754679971E+03
 6.718921392504E+00 5.609772525551E+00 -8.121455348545E+01 -8.239373717337E-02 9.551520387831E-02 -8.815459595521E+00 -1.960018907712E+00 4.796039042025E+00 -8.288333522639E+01 3.751606013803E-01 1.255817945204E+01 -8.208676453893E+01 3.927086930331E-01 3.605026017324E-01 -1.001270649701E+01 -2.198635903624E-01 -2.276610837747E-01 8.912179349304E+00 -5.069244754009E+00 -2.295983938454E+01 1.921085689123E+02
 -1.548796571424E-01 1.795901970794E-01 -2.569211559115E-01 -1.221930592156E+03 -4.171560191413E+02 4.983132255579E+00 -2.072828359388E-01 -5.625332952426E-02 2.416019365041E-01 -1.209905361240E+03 4.354235635890E+02 -3.921518041654E+00 2.019084812818E+00 1.307127981252E+00 1.827951963923E-01 3.712200259106E+01 -5.574030589575E-01 4.687549684030E-01 4.029288150938E+01 -4.796336922811E-01 2.003223056456E-01 2.793568817945E+03
 -1.712538276160E-01 1.255270184155E-01 1.378372760892E-01 -4.206612343236E+02 -7.007954364268E+02 8.392742407688E+00 -4.875655119915E-03 -2.204383427794E-02 -3.059996099835E-01 4.387026704031E+02 -7.322233307121E+02 7.048118149082E+00 -2.146396967508E+00 -4.920736388363E-01 -2.479011156885E-01 -6.656744179988E+01 4.438009549180E-01 -4.250847906692E-01 6.736185914308E+01 -4.682068146383E-01 -8.778103742774E-02 2.300106076917E+00 2.791376167963E+03
 4.315923987662E-02 -1.815177560497E-01 -9.086205052744E+00 5.361316956945E+00 9.204413492818E+00 -8.154899738377E+01 -1.313866646272E-01 3.270515295898E-02 5.746212204707E+00 -4.871774095791E+00 7.004200454701E+00 -8.253115402484E+01 4.659271837902E-01 1.197825799152E+00 5.807390441929E+00 8.413937216735E-01 -2.968456768012E-01 9.547027432647E+00 -3.365307943845E-01 2.809064168213E-01 9.199263541128E+00 -1.341153173992E+00 -3.325026437932E+01 1.941866652341E+02
 7.252886328099E-01 -1.117359221366E-01 -8.643497679393E-02 5.792691800905E-01 -8.776968039471E-01 9.530167854657E-02 -1.249941944211E+03 -4.516249665608E+02 5.015007221743E+00 6.013283592286E-01 4.960456022119E-01 3.109918738740E-02 -5.850401764304E+02 2.018527293789E+01 5.215854786574E-01 -7.833656280345E-02 8.820308283100E-01 3.351377312299E-02 -2.282511477958E+01 -3.766428070396E+01 3.307325380746E-01 1.761442726231E-01 1.475064059944E-01 7.214464910004E-02 2.621973744034E+03
 5.857401797808E-02 7.379800100688E-02 7.957269994187E-02 -4.350800625308E-02 -3.869419844662E-01 -2.028419950152E-01 -4.665421134910E+02 -7.782196951617E+02 5.752871005412E+00 7.650470495851E-01 -5.496884091512E-01 -2.858661787612E-01 -9.527473062943E+00 -1.789590635921E+03 1.612081327052E+01 2.338416046233E-01 2.014238561426E-01 -2.278960257808E-01 3.529842689133E+01 6.155659990161E+01 -5.437703264931E-01 2.372503762527E-02 2.287099444968E-02 -2.674587017318E-01 1.963324776187E+02 3.008811589576E+03
 2.164570288379E-01 5.669015027600E-03 5.024784804104E+00 3.498098328450E-01 -2.100027056654E-01 -5.081648187241E-01 5.516088116680E+00 6.171923605479E+00 -8.017992937364E+01 2.330790256965E-01 5.814192732074E-02 -1.050130799710E+01 6.038751694638E-01 1.493825411857E+01 -7.577404949397E+01 4.013400679162E-03 4.751074729310E-01 -1.509876074680E+00 -5.980940107247E-01 -3.202195925492E-01 9.448265595050E+00 -2.491013484988E-01 3.019610725305E-01 -1.020439441467E+00 -4.793062552745E+00 -2.570169533406E+01 1.597222650283E+02
 1.519524463816E+00 -1.844332462587E-01 -2.874866449630E-01 7.012897285358E-01 -1.190969768740E+00 4.631203300966E-02 -1.610490455522E-01 3.250571613779E-01 1.710722674695E-01 -1.236638488341E+03 -4.383934562700E+02 5.571199403642E+00 -1.209875435718E+03 4.325182740420E+02 -2.154870943632E+00 -4.131558646793E-01 7.693297883669E-01 3.716662324432E-01 3.774417075715E+01 -3.658286503935E-01 -6.840869511290E-02 -2.020522980619E+01 -3.408127050245E+01 5.212966648682E-01 4.908549497201E+01 -1.397364965858E+00 -1.241873335554E-01 2.824938834642E+03
 -1.258644764944E+00 2.879787424518E-01 1.308221330477E-01 -8.753239286568E-01 9.928980878126E-01 -1.808190892127E-01 3.095824825136E-01 4.681160183066E-01 -5.269102539545E-01 -4.393835221604E+02 -7.317794956085E+02 7.028264943905E+00 4.283359785783E+02 -8.004060478611E+02 5.999466414426E+00 7.491373699279E-01 -9.148851961763E-01 -3.077551898489E-01 -6.704452034617E+01 3.487297655883E-01 9.575417774034E-02 3.503178453664E+01 5.968778790888E+01 -8.807679789093E-01 8.260615977926E+01 -1.870068806827E-01 4.343620480093E-01 -5.948368567542E+00 2.892540989497E+03
 1.569843967992E-01 4.842559613908E-02 4.686162052023E+00 2.132622718729E-01 -6.761255451182E-02 4.249758342147E+00 4.017726945671E-02 -2.156424365063E-01 -1.167357048853E+01 6.476960386597E+00 7.436658977051E+00 -8.597052741419E+01 -2.631429027068E+00 5.816078887123E+00 -8.068197692599E+01 1.183824318199E-02 2.654946328611E-01 -1.005952219085E+00 3.047855757965E-01 1.359601846120E-01 9.246200960191E+00 -5.663848362409E-01 -4.463511662251E-01 8.516893687211E+00 -7.996415526896E-01 4.182806216805E-01 1.195118722933E+01 -3.760561366556E+00 -2.833259560633E+01 1.900679569725E+02
 2.094406995463E-01 -5.111524133586E-01 -2.089623506034E-01 -3.514479723028E-02 7.454026328028E-01 1.253187316440E-01 3.168671737556E-01 -6.137569071642E-02 9.606238304055E-01 1.196623059231E-01 1.468995731299E+00 1.499323145932E-01 -1.915743098944E+01 -1.444961108871E+01 1.102713955038E+00 -1.231605605136E-01 2.652101467934E-01 8.328003377574E-01 -4.864412245886E-01 1.391438436413E-02 2.513179121229E-01 2.252051955124E-01 -9.871992468168E-02 7.154934280096E-01 5.427372820888E-01 3.226244237975E+00 -8.687940141439E-01 8.580407378645E-01 -1.294815948294E+00 -5.246929604657E-01 2.773343820279E+03
 3.049923196518E+00 -4.134704186605E-01 -7.706154071255E-01 2.015859221246E+00 -3.451551173902E+00 4.966816043575E-01 2.239449018912E+00 6.313274141087E-01 1.952037039996E+00 3.610987707679E+00 -3.135550211495E-01 8.093621454476E-02 3.388173781749E+01 4.372385358888E+00 1.911547858885E+00 -7.726869261658E-01 3.004062811357E+00 1.616234763324E+00 -4.124964091317E+00 -1.259427017760E+00 2.933053589140E-01 2.719674643358E-01 8.710453275683E-01 1.188289061498E+00 -5.130741027658E+00 -1.129207002483E+00 -1.753687553781E+00 -6.738369393448E+00 6.360087255042E+00 -1.085627890386E+00 -6.104045200657E+00 2.792405966548E+03
 1.039452173267E+00 3.331277235763E-02 2.152348174086E+00 1.145997990903E+00 -4.307163603832E-01 -1.683154313560E+00 3.914695608991E-01 -3.094783863297E-01 -6.922630949811E+00 8.066121238309E-01 -7.547150199171E-02 -7.037644944443E-01 3.518950590616E+00 -3.517991480419E+00 -6.979401054083E+00 3.003105545034E-01 1.132997278014E+00 -3.675697338526E-01 -8.232093482650E-01 -2.155887257051E-01 -5.639915123137E-01 -3.269775271573E-01 8.043311813948E-01 -3.382705168366E+00 -5.371116865895E-01 1.496931384971E+00 5.843787897939E+00 -1.023217920848E+00 2.304653658841E+00 3.835404600675E+00 -4.494251975309E+01 -5.389589450215E+01 2.261722568198E+02
 -1.794074175412E+00 1.011391571761E-01 4.504323400656E-01 -1.330904408396E+00 2.193711259098E+00 -1.685730986814E-01 -1.258924554276E+00 -3.880389582234E-01 -6.144548485815E-01 -2.059247527778E+00 5.434349452040E-01 7.200087377326E-02 -2.378736925466E+01 -6.069847508735E+00 -5.576548229081E-01 5.240279878373E-01 -1.607586289915E+00 -3.077861461350E-01 2.286165209059E+00 5.311408340364E-01 1.196844235662E-02 -1.512588292108E-01 -5.554490532516E-01 -3.104009229100E-01 3.124765451359E+00 1.546746371800E+00 5.509693731692E-01 3.973073951018E+00 -3.706127699386E+00 3.126579378553E-01 4.115903507944E+01 8.280126365469E+01 -7.458433046840E+00 2.793492541098E+03
 -1.825814565570E+00 -1.054110095856E-01 5.418690470122E-01 -1.382079678450E+00 2.775723982456E+00 -2.458256702191E-01 -3.396132501796E-01 -3.187987822849E-01 -2.179022589932E-01 -2.335541435716E+00 1.639011820074E+00 1.660337282896E-01 -4.028670683289E+01 -1.670097982325E+01 4.500570995265E-03 6.597494269328E-01 -1.579348863510E+00 3.674325854499E-02 1.919796105502E+00 9.625210050591E-01 2.896020054236E-01 3.742588330498E-01 -8.450332619564E-01 9.241741752720E-02 2.861703360293E+00 3.164872232613E+00 9.771171391143E-02 5.235012344432E+00 -5.750233267485E+00 3.368087708401E-02 -9.138720111441E+00 1.184048131033E+01 6.714795258387E-01 2.720046300636E+02 2.824150725697E+03
 6.683648875642E-02 4.347193904824E-01 -8.113927895716E-02 5.475662655130E-01 -3.781939306657E-01 5.071505097719E-01 1.441270412705E-01 3.624684718132E-01 2.157743456456E+00 4.497169560449E-01 -2.629132348978E-01 3.839186804707E-01 6.955945479665E+00 4.141809358776E+00 2.178039746110E+00 -5.908087516920E-01 -9.230041934093E-01 1.786757411150E+00 -3.253946380160E-01 -4.646064000874E-01 6.007107710303E-01 1.075760928414E-01 -1.125133988500E-01 1.233478203952E+00 -3.025150552770E-01 -8.678261738206E-01 -1.964236733774E+00 -4.188807216547E-01 4.395143213176E-01 -1.394658446690E+00 -1.006992169216E+00 -2.683920916248E-01 5.570297917810E+00 -2.520123775322E+01 -1.887147893114E+02 1.713939520633E+02
 -1.981800421588E+01 -3.418942577433E+01 4.684627065303E-01 3.830007063686E+01 -7.167348727238E-01 -4.940749548728E-01 1.755428370055E-01 4.915514319822E-02 9.888087546324E-02 2.555492148516E-01 -1.579785737454E-01 -4.221703976379E-02 4.230482451139E+00 2.061856580923E+00 7.823959111377E-02 -1.255978626888E+03 -4.352005706240E+02 1.966175658788E+01 -3.108338542974E-01 7.893536407456E-02 -6.966202680185E-02 8.296947300802E-02 6.611357810380E-02 2.010296924883E-02 -3.874297129831E-01 -4.562909944521E-01 -1.092870014020E-01 -3.816170890785E-01 3.623495683974E-01 -5.267950251015E-02 -1.815897697678E+01 3.256273082779E+01 -9.668985498420E-01 8.523193321710E-01 1.434600337657E+00 -2.311944890947E-01 2.791085816567E+03
 3.590292981112E+01 6.068044492129E+01 -1.429811189947E+00 -6.805216256069E+01 7.017775120985E-01 8.103742237865E-01 3.656599293853E-01 4.888905751641E-02 6.058071506234E-01 7.212537870205E-02 3.825287958770E-01 1.037862047129E-01 -2.879556693842E+00 -2.977122788402E+00 6.258147714150E-01 -4.390218948014E+02 -7.238862497567E+02 1.308969125927E+01 -3.568395953412E-01 -6.665495292216E-02 1.789520247481E-01 1.114424563176E-01 -8.424090565780E-05 4.137936172644E-01 -3.580111162208E-01 4.843012993179E-01 -5.606329962617E-01 2.852310512588E-02 -2.012189745721E-01 -3.537370813128E-01 -3.506279445286E+01 5.666579888963E+01 -6.147171683943E-01 -1.471763637935E-01 -1.201845492922E+00 1.687029818880E+00 1.838581601333E+01 2.793582518129E+03
 -1.173444385945E-01 1.761345065771E-01 1.000686847882E+01 2.217648148615E+00 -1.889707578806E-01 8.969355088686E+00 1.090155162699E-01 -3.104668091519E-02 -9.061946882351E-01 2.785524683625E-01 2.319231700044E-01 -6.216298051412E-02 -2.461082107500E-01 -1.065877053723E+00 -9.449991792899E-01 1.734855018451E+01 1.172521414205E+01 -8.443858807905E+01 -9.316937525948E-02 -2.753959406202E-01 4.507766830638E+00 -4.169444786320E-01 2.276311036840E-01 4.042940643765E+00 -1.429531526000E-01 2.856389072172E-01 8.059138053682E-01 -1.154231754740E-01 2.520027478946E-01 5.150855563012E-01 4.717894427798E-01 -3.251201873423E+00 1.199864496984E+01 5.890881097838E-01 5.901010526347E-01 -8.122529225793E-01 -2.690461192709E+01 -2.384867504158E+01 1.923913584311E+02
 -1.540074567080E+00 5.548898090095E-02 3.878207442965E-01 -2.010152445607E+01 -2.948506817539E+01 5.618373077708E-01 -6.678283110995E-01 -2.824161989484E-01 -1.563448739952E-01 -1.910290153289E+00 6.190821317842E-01 1.670875454290E-01 -2.488721210992E+01 -7.695644292730E+00 -6.630422201759E-02 4.506354124673E-01 -1.481892597585E+00 -5.830191316806E-02 1.850995899338E+00 6.436613823140E-01 1.795132206867E-01 1.265478476011E-01 -5.638793704070E-01 1.698331464553E-02 2.438908564867E+00 1.497792104818E+00 1.408457517807E-01 3.774192797399E+00 -3.813163655858E+00 2.476345234796E-02 3.452031329338E+01 -6.000675050497E+01 7.835745411867E+00 -2.979526062826E+01 3.231664563036E+01 -1.009578441156E-01 4.057137555785E+01 6.644565217568E+01 -3.852217617172E+00 2.762367338033E+03
 9.373062977890E-01 -3.931951399105E-02 1.553877442718E-01 3.510167893334E+01 5.508363575900E+01 -4.732683987740E-01 2.332152679963E-01 5.239565206523E-02 -2.513080769601E-03 1.119753699470E+00 -3.063167971084E-01 -4.316477639670E-02 1.228870551222E+01 2.842695853373E+00 -8.828354815486E-02 -7.300247398205E-01 4.175955168407E-01 4.689601654578E-01 -1.008371261485E+00 -3.928476260776E-01 -6.188638031327E-02 -6.670104026375E-02 4.406137535648E-01 3.012470641529E-02 -1.089249285912E+00 -2.406244445534E-01 2.541140812754E-02 -2.045198570012E+00 2.202985754271E+00 3.032626048092E-02 4.155775045285E-02 -4.553854065040E+00 -1.119155295155E+00 -3.849350353401E+01 7.803898581379E+01 -6.189323409245E+00 -9.992717961803E-01 -5.842696655101E-01 -9.897323231815E-01 -2.013969243127E+01 2.756978235694E+03
 -7.992878492415E-01 2.155040853263E-01 -1.650363687878E-01 -6.101231154437E-01 3.283997684470E-01 8.332355398936E+00 -3.179755489505E-01 4.302204547486E-01 3.493815693109E-01 1.081498357929E-01 5.087437197995E-01 -2.118938705513E-02 -1.088842357143E+00 6.113657965800E-01 4.043319246183E-01 7.978904203617E-01 -7.270964883523E-01 -8.589248364049E+00 1.849019249597E-01 -4.452776685968E-01 4.635476766271E-02 -8.041470513306E-01 -4.096586626827E-01 4.492111665504E+00 3.603782446316E-01 -4.922594035382E-01 -3.321957893651E-01 -7.570578234087E-02 -6.842297416051E-01 -1.876491564292E-01 -1.211350052431E+00 3.741083981885E+00 8.473072931595E+00 2.017207397284E+00 -4.867938614610E+00 1.285687986049E+01 -1.192154249136E+00 -2.086401486959E+00 8.595189315103E+00 4.517656123726E+01 -1.032263675971E+02 1.898037732428E+02
 2.346835798980E+00 7.887345242175E-01 1.564402996808E-01 1.122027891723E+00 -5.699449613445E+00 -2.716173054061E-01 -8.866279510069E-02 1.198001273601E-01 -3.094489624524E+00 2.277658589578E+00 -5.400718524351E+00 -6.235978242752E-01 9.263638596375E+01 5.219517614507E+01 -3.627191144980E+00 -1.843961615993E-01 2.889397068561E+00 -3.203101447765E+00 -1.271061211826E+00 -9.155969763640E-01 -1.072184534061E+00 -1.350659868097E+00 1.422288181388E+00 -2.452025616839E+00 -5.578214855702E+00 -1.146908437571E+01 2.852811811212E+00 -9.736808765450E+00 9.912419473571E+00 1.714949936150E+00 -1.190022640430E+03 4.183684820757E+02 1.732438412375E+01 -4.960546535672E+02 2.786546375258E+01 6.625839199212E+00 -4.109243018099E+00 5.494404974434E+00 1.034626074685E+00 2.180293790125E+01 -6.561615370242E+00 6.743776414705E-01 2.739826426582E+03
 2.108417247814E+00 7.221724457318E-01 -8.965011379111E-02 2.003670241566E+00 -3.790751166799E+00 2.793948368937E-01 5.158708880193E-01 6.020611094758E-01 -3.871321387992E-01 2.619212769891E+00 -2.178436126858E+00 -1.386380719774E-01 4.673934525231E+01 2.103175163394E+01 -6.026440883833E-01 -1.391663292433E+00 1.452251121407E+00 -3.377938682645E-01 -2.237164093173E+00 -1.355453742301E+00 -2.478105701995E-01 -9.697798614826E-01 1.154482384202E+00 -4.218302215669E-01 -3.489505112612E+00 -4.606578125671E+00 4.232877120349E-01 -6.319784143088E+00 6.379837535216E+00 1.989608768398E-01 4.545404079227E+02 -7.691971244501E+02 2.261928794199E+01 -1.483999926211E+01 -1.504021975859E+03 1.078551938803E+02 -1.656629942070E+00 2.644036839696E+00 4.394639071849E-01 1.293303708674E+01 -6.616911834624E+00 5.247965407078E-01 -4.938814188757E+01 2.822848648635E+03
 -1.958200441773E+00 -1.729171068837E-01 -1.312386086004E+00 -2.014950629075E+00 2.012281224407E+00 4.547804589818E-01 -1.100920099307E+00 4.814924797253E-01 2.323848105775E+00 -1.620670345748E+00 -7.468270663901E-01 8.988538519664E-02 -9.588971021055E+00 6.151251310703E+00 2.398826348246E+00 8.162456942549E-01 -1.368331143352E+00 1.602802020621E+00 1.936833079808E+00 5.766671549693E-01 -1.615449822912E-01 9.436807647942E-01 -6.732086165534E-01 1.072333749256E+00 3.471667869824E+00 -8.536412113611E-01 -1.894397609996E+00 5.501477294295E+00 -2.295691647422E+00 -1.133544573049E+00 -2.723108820812E+00 2.953777849168E+01 -1.093046711368E+02 3.695029628589E+00 1.076734221970E+02 -9.107193543399E+01 2.650931453212E+00 -7.395572933162E-01 3.075990576163E+00 -9.901126327910E+00 2.793991480398E+00 -1.022027058387E+01 -7.746979552526E+01 -2.212755001902E+02 3.061367600272E+02
 -5.359158721137E-01 -1.147099433087E-01 9.119632734856E-02 -8.026543782400E-01 5.310709108343E-01 -2.889223310398E-01 -1.673061343675E-01 -9.322121973237E-02 -2.466621752876E-01 -5.760061533537E-01 3.159463099270E-01 -2.087666188744E-02 -6.341768272046E+00 -2.207075345768E+00 -1.524221174289E-01 -1.916882972682E+01 3.516859171397E+01 -7.392255937441E-01 5.537734348710E-01 1.433475368455E-01 9.453690035210E-02 7.613470601999E-02 -2.928580308647E-01 -8.321468940765E-02 5.578749383098E-01 4.303249308609E-01 1.239617007692E-01 9.992587179422E-01 -1.063290684249E+00 8.275017978208E-02 -1.223648039765E+03 -4.169521853579E+02 3.458695244613E+01 -1.171587937689E+00 -2.873732296283E+00 -8.889497593185E-01 -1.179482810223E+03 4.272444774957E+02 9.217498501326E+00 -4.685844324461E+02 -1.378595010364E+01 1.556854811846E+00 -1.313036420893E+01 -3.145970968701E+01 4.517583223720E-01 2.755709208089E+03
 -7.501571133234E-01 -7.403657691944E-02 3.011299807437E-01 -7.910088117006E-01 1.247368034138E+00 -8.362510877621E-02 -5.100583831417E-01 -2.636083659713E-01 -7.002930782178E-01 -1.128527055486E+00 8.446295697261E-02 4.178282481003E-02 -9.886705264541E+00 -1.885930047467E+00 -7.303746036954E-01 -3.231347598356E+01 5.852861400184E+01 -9.873739569421E-01 1.201912394851E+00 4.597022775886E-01 -8.945762130199E-02 -6.258867548744E-02 -3.153634259267E-01 -3.743514599334E-01 1.254485828213E+00 3.658983524183E-01 7.096994905422E-01 1.716215759380E+00 -1.610207723141E+00 4.023007076584E-01 -4.238745680547E+02 -7.013693577713E+02 2.607447773620E+01 -1.628676044124E+00 -3.416170445823E+00 -2.881546257344E+00 4.298133036888E+02 -7.176424297698E+02 9.379120724454E+00 -9.338058925912E+00 -1.489880389643E+03 5.301449829761E+01 4.016781959779E+01 6.298228266069E+01 -3.629842146569E+00 -2.951839876668E-01 2.796876453654E+03
 -1.162546384178E-02 1.120484161422E-01 3.504758879668E+00 -9.707450942982E-01 -2.187351518013E-01 -7.469836901281E+00 2.611766946514E-02 1.924117870908E-02 4.718410905823E+00 -5.916599130001E-01 -3.498690368795E-01 3.744417668896E-01 -1.801584583422E+00 2.460544244392E+00 5.050531062640E+00 -3.921575550621E-02 -1.860180990465E+00 1.290100065149E+01 5.133440892953E-01 1.283997185255E-01 8.802176241659E-01 8.623396384855E-01 -5.385734930637E-01 2.609421304133E+00 2.483853180208E-01 -7.257410293379E-01 -4.341203532000E+00 7.640429773644E-01 -1.319796887651E+00 -2.811177764103E+00 4.489031668408E+01 3.259595435350E+01 -9.791031867715E+01 -1.876045147616E+00 1.742576100802E-01 -6.029625601947E+00 4.884857455878E+00 9.360453894693E+00 -8.314996395228E+01 -2.768993889628E+00 5.126062975145E+01 -8.245588996491E+01 -7.665665989317E+00 -2.360525106389E+00 1.513641661994E+01 -4.563082158459E+01 -8.890660417581E+01 2.052165701383E+02
 2.522571367555E+00 -1.257376696248E-01 -6.816148994897E-01 2.067552446937E+00 -2.925210642829E+00 1.947523856782E-01 1.387095185955E+00 4.535382375211E-01 8.097655281243E-01 3.036611981061E+00 -5.297102849867E-01 -9.263116826603E-02 3.153762606794E+01 6.485496160508E+00 6.836734851253E-01 -9.133777694080E-01 2.141083587664E+00 4.328373572664E-01 -3.180165131445E+00 -9.744070488419E-01 -1.163864932743E-01 -1.052077051592E-01 8.988431671809E-01 3.672420932064E-01 -3.959915598006E+00 -1.399784270700E+00 -6.555245948209E-01 -5.793955269840E+00 5.468020690597E+00 -3.579233705642E-01 3.883970898959E+00 -1.528344210207E+01 -4.709926202982E+00 -1.505107613423E+03 -5.244304071086E+02 2.671588271154E+01 -1.195053033850E+00 -3.237045374187E-02 -4.578862243407E-01 -1.255524688753E+03 4.261349757092E+02 -4.190386661891E+01 2.452935637084E+01 -1.495224660286E+01 1.239466639897E+01 4.142440932593E+01 3.745070494558E+00 4.593680816851E+00 3.057110880308E+03
 -1.032051732924E-01 7.765576334317E-02 -1.419922937622E-01 -1.131050741119E-01 -2.056236295689E-02 2.694228764304E-01 1.455401246736E-01 1.446192026036E-01 2.632989537294E-01 -2.890840189219E-02 -2.139289966182E-01 -6.697680312746E-02 2.595496098008E+00 2.582843668970E+00 3.449395026212E-01 1.638819757180E-01 -1.218297905540E-01 1.803329945042E-01 3.760354475061E-03 -8.109809562602E-03 8.742696523261E-02 8.110914329054E-02 -1.315362857494E-01 1.675525561620E-01 -2.484924956631E-01 -8.224865357595E-01 -3.272768809208E-01 -2.591362429587E-02 -1.063309427361E-01 -1.779290076452E-01 2.052531622808E+00 -9.320361959366E-01 2.387205201128E+00 -5.450618762984E+02 -8.615004830730E+02 5.138750741572E+01 -3.466865086768E-01 1.406653175448E-01 -2.859097453882E-01 4.161862729978E+02 -7.336714387423E+02 4.232209784653E+01 -9.247664650167E+01 1.926453750557E+00 -6.092981005566E-01 7.211692198275E+01 -1.942912311249E-01 2.604350965976E+00 1.013993175105E+02 2.541597553855E+03
 4.591559446870E-01 3.486339546143E-01 1.057724963943E+00 1.007616854330E+00 -5.599969819288E-01 3.756884385315E+00 2.646976579795E-01 1.515577811530E-01 -3.288013309848E+00 6.221719944254E-01 1.740408873752E-01 -2.377813910601E-01 6.089722551801E-02 -2.639152318763E+00 -3.390483152002E+00 -3.227053584407E-01 3.275870842933E-01 -2.493526503146E+00 -7.381683872498E-01 -2.660257066219E-01 -3.382613548687E-01 -7.167792687635E-01 5.773609392133E-01 -1.688020219055E+00 -4.351267435388E-01 4.057736648262E-01 2.874341144255E+00 -9.198954930617E-01 7.092552581188E-01 1.834280616442E+00 4.602820475471E-01 -3.745905513745E+00 1.131591600592E+00 2.634902599353E+01 5.053106507659E+01 -7.539389308294E+01 -6.972289748403E-01 -1.812674236971E-01 6.214276292089E+00 -4.129144242136E+01 3.967655783408E+01 -8.023488773483E+01 9.814623060933E+00 -9.605782831277E-01 6.459938515205E+00 -1.697313449363E+00 2.895802146136E+00 1.851764638262E+00 1.599241136633E+01 -1.494631834280E+02 1.659526615261E+02
 1.006083131957E+00 -1.218829169759E-01 3.798465958425E-02 -1.226434108007E+03 4.479868332725E+02 -1.081551404861E+01 6.182061636161E-01 1.772333710749E-01 6.795535114356E-01 1.352077033396E+00 -4.661464633024E-02 -7.235208999860E-02 1.271987209336E+01 2.315507208339E+00 7.157416177510E-01 4.011076146832E+01 3.884132121445E-01 1.281867101558E+00 -1.369165009558E+00 -5.185903380774E-01 1.466755540336E-01 -1.993420671747E+01 3.628796036722E+01 -1.949574014374E-01 -1.590311552586E+00 -3.270784024021E-01 -7.256846751247E-01 -2.244857366637E+00 2.063944598305E+00 -4.276739043730E-01 7.166395862168E-01 -6.109569587335E+00 -3.015194334423E+00 3.540494695921E+00 4.373248065353E+00 -1.888037216749E-01 -5.198876133410E-01 -1.924707126300E-01 -1.064408959915E+00 -1.149547759598E+03 -3.965890759973E+02 1.365899004175E-01 -7.575713449935E+00 -5.363269289699E+00 5.095342307112E+00 3.782916674052E+01 1.206724737859E+00 2.399661575715E+00 -2.320841155422E+01 -3.211309948579E+01 -5.614071303259E-01 2.741977442788E+03
 4.497646495304E-01 -1.282010157933E-01 -3.229768024907E-01 4.576897611413E+02 -7.506304130282E+02 1.110941410953E+01 4.853237213367E-01 1.868185736669E-01 1.649265029789E-01 6.163031746462E-01 8.518438241163E-02 4.705900981156E-02 3.701637187389E+00 -6.645286091071E-01 1.779580317206E-01 6.702530022305E+01 3.004289903764E-01 2.035975989292E-01 -8.335383773389E-01 -1.976565250053E-01 -6.549662879648E-02 -3.306054627097E+01 5.958150476157E+01 -1.049075768027E+00 -9.700564271668E-01 -1.467918726930E-01 -1.112680047413E-01 -1.078009127143E+00 1.037905690608E+00 -5.320673294609E-02 -5.240757131171E-01 -3.559120038491E+00 -4.073917934193E-01 1.880133122421E+00 1.383581144653E+00 6.551708444305E-01 2.910816696374E-01 -2.939759488206E-01 8.192615775480E-01 -3.913511782151E+02 -6.685521636478E+02 1.143227746732E+01 -1.331763453640E+00 -6.328419277154E-01 1.510545094598E+00 -6.543447803555E+01 6.517000605228E-01 4.145501938312E-02 2.973889021057E+01 5.777339230549E+01 -1.482839327640E+00 -8.350436235035E+00 2.803114450097E+03
 7.418000979225E-01 -3.399591841781E-01 5.541752782420E+00 -1.107006158492E+01 9.770430177153E+00 -8.416246852887E+01 2.007773933177E-01 -1.698598537234E-01 -3.305363577535E+00 2.277958848323E-01 -2.376258753207E-01 4.314234285879E+00 8.424806071274E-01 -1.902143145047E+00 -3.396361187658E+00 -1.557871075435E+00 1.720372568653E+00 6.568514414206E+00 -5.148220315718E-01 2.873574391870E-01 -4.130183169263E-01 7.517370660490E-01 -5.992849060299E-02 7.820567764469E+00 -2.298624347590E-01 6.799472324735E-01 2.874177802232E+00 -3.118016546894E-01 9.750463506812E-01 1.896081443440E+00 -2.264177927746E+00 -3.238884581889E+00 1.584758070766E+01 1.950716332739E+00 6.591249229047E-01 2.449732646579E+00 1.109807504654E+00 -6.633779735211E-01 -7.434044514806E+00 -5.070167494092E-01 1.411051932357E+01 -8.126957104065E+01 3.736294616041E+00 1.288581070487E+00 -4.605359862426E+00 3.770829045122E+00 -2.146472166250E-02 7.146348234699E-01 -4.708273527070E+00 -3.903766309232E+00 1.521478860948E+01 1.040686498134E+01 -3.717262022892E+01 1.923049145290E+02