#BIOSYM hessian 1
@Type: Hessian Update
@Units
 distance: 	A
 energy: 	Kcal/Mol
#header
@natom 67

#label
C1      C2      C3      C4      C5      C6      C7      C8      C9      C10     C11     C12     C13     C14     C15     C16     C17     C18     C19     C20     C21     C22     C23     H24     C25     C26     C27     C28     C29     C30     C31     C32     C33     C34     C35     C36     C37     C38     C39     C40     C41     C42     C43     C44     C45     C46     C47     C48     C49     H50     H51     H52     H53     H54     H55     H56     H57     H58     H59     H60     H61     H62     H63     H64     H65     H66     H67

#element
C  C  C  C  C  C  C  C  C  C  C  C  C  C  C  C  C  C  C  C  C  C  C  H  C  C  C  C  C  C  C  C  C  C  C  C  C  C  C  C  C  C  C  C  C  C  C  C  C  H  H  H  H  H  H  H  H  H  H  H  H  H  H  H  H  H  H 

#matrix
201
 2.784509902521E+03
 -2.557942362132E+01 2.817551426240E+03
 2.347201139756E+01 -5.886288535114E+00 1.935911886802E+02
 3.943474744270E+01 6.722537924332E+01 -3.295996127279E-01 2.791419801586E+03
 -7.437869521143E-02 -5.499478155096E-01 1.162502320591E-01 -2.459640532233E+01 2.768679828667E+03
 8.578060864502E-02 5.004187923559E-01 8.420680322996E+00 2.044238174552E+01 -1.588137344530E+01 1.914730812523E+02
 -1.992067546403E+01 3.566127134555E+01 -5.528823239114E-01 3.287710073647E-01 -1.838280410858E-01 1.784869249349E-01 2.798432989566E+03
 -3.408357982188E+01 5.860491038440E+01 -9.316919399358E-01 -5.669760783320E-01 5.837739888983E-01 -1.063768157423E-02 -2.014813198619E+01 2.815133692120E+03
 -1.524964437445E-01 3.186384170776E-01 7.627883761564E+00 -6.927684705530E-01 8.695082221184E-01 -3.643641238094E-01 4.226148726828E+01 1.084076253145E+01 2.257395411052E+02
 3.804087381512E+01 -6.790484246850E+01 7.745665926372E-01 -1.976067986767E+01 3.481713829244E+01 -4.429990026606E-01 4.028479785745E+01 7.404737294735E+01 -1.577586361746E+00 2.783900889806E+03
 -4.301545530331E-01 1.102815994677E+00 -1.903193359330E-01 -3.356379755229E+01 5.901126924393E+01 -6.964729174253E-01 -2.654570388392E+00 3.978444926291E+00 1.260088849115E+00 -2.658579719913E+01 2.837258531322E+03
 5.405546142169E-01 -8.147056549435E-01 9.121887182987E+00 1.257425945834E-01 -4.922177977467E-01 9.125151809259E+00 3.218251389769E-01 2.173921255829E+00 1.023488658591E+01 2.654048290519E+01 -1.780511631341E+01 1.973758708530E+02
 -8.729307007494E-01 1.546051559952E+00 6.137931939432E-02 -8.249932157373E-01 2.932122993601E-01 -1.240109249101E-01 4.005517259295E+01 -6.988872582940E+01 6.256717399257E-01 -2.431769786093E+01 3.381096845990E+01 -1.524939399532E+00 2.635031661193E+03
 2.953121477752E+00 -2.711948886615E+00 4.465420310201E-01 2.158349791249E+00 -1.238272412331E+00 -2.535423647684E-01 8.294918720355E+00 -7.201100530383E+00 3.574627328900E+00 -3.077928702197E+01 7.057949192719E+01 -1.920068730416E-01 -2.175752221182E+02 2.866506341155E+03
 5.399854619193E-01 -7.278761078773E-01 1.004750854666E+00 8.533521893127E-01 -1.354251220199E+00 -6.564444882009E-01 -2.000528149835E+00 -3.833381138903E+00 6.436973696049E+00 -2.441969709794E-01 2.163862772259E-02 1.137797622645E+01 4.206472176317E+01 -3.336572338414E+01 1.836974162883E+02
 -1.230348873596E+03 4.474719466882E+02 -1.090290616810E+01 -4.645289225798E+02 -6.650585751919E+00 -2.896543115290E+00 6.936277996127E-01 -7.578207022437E-01 3.761483913517E-01 7.513360413566E-01 1.273460245322E+00 3.763567465582E-01 1.454017575633E+00 -4.285083942579E+00 9.253926926389E-02 2.822132487801E+03
 4.422066395120E+02 -7.390742312515E+02 5.756692750502E+00 -5.495488317971E+00 -1.433112714747E+03 7.430732157093E+00 1.671819553447E-01 -1.774544376597E-01 1.574495854993E-01 1.075843064142E-01 -4.452135518781E-01 -1.504295515910E-01 -7.581526686272E-01 1.578069957456E+00 -3.530715974282E-02 -4.031161719488E+00 2.780398683072E+03
 -1.111900026766E+01 5.872602008791E+00 -8.290321332668E+01 -3.022669077223E+00 7.374075926911E+00 -8.118108374635E+01 -2.080162257600E-01 -6.390832753323E-01 3.386331354105E+00 -2.864849191305E-02 1.909974546549E-01 -1.003070213538E+01 7.244348933554E-01 -3.288080578981E-01 4.976599032316E-01 1.996004874783E+01 -1.268920777976E+01 1.934478654709E+02
 -1.193110487023E+03 -4.117428490084E+02 -1.072480417613E+01 -1.787752339709E-01 7.078463998361E-02 1.951808327289E-01 -1.263590651510E+03 4.497662845159E+02 -1.760222999533E+01 -4.830565738906E+02 -7.029485053543E+00 -4.237355154978E+00 7.439297950534E-01 1.216212678325E+00 1.369510211575E+00 -1.937565133709E+01 -3.331719652046E+01 -6.839639317808E-01 2.818952929337E+03
 -4.110114219113E+02 -7.029314130814E+02 -1.420201256720E+00 9.553895321044E-01 -1.030955048381E-01 -1.543425669067E-01 4.517061868273E+02 -7.440107392172E+02 7.306841383697E+00 -8.016714098774E+00 -1.512147674766E+03 8.613255899186E+00 4.072648490464E-01 -6.308681665542E+00 -5.592358269738E-02 3.336900512117E+01 5.876796705570E+01 9.098123910955E-02 -3.195166622270E+01 2.840928627287E+03
 -1.041204037940E+01 -1.784622441976E+00 -8.229110765418E+01 2.807788950643E-01 2.798924019736E-02 -8.791519205926E+00 -1.986613882608E+01 8.402855867283E+00 -8.471717564468E+01 -4.355219786710E+00 7.876138203069E+00 -8.601776245582E+01 -1.154889243740E+00 1.982327374231E-01 -6.571587658384E+00 -1.047083740084E-01 -5.016711046139E-01 8.403262680356E+00 3.303567096035E+01 -1.494884168212E+01 2.008225240871E+02
 3.017921175231E-01 -1.480772266009E-01 1.748517220025E-01 -1.220088948564E+03 -4.201299532323E+02 -6.653516537015E+00 -1.090001464898E+00 1.235530420925E+00 4.245695872651E-01 -1.225515573610E+03 4.404708578235E+02 -1.434298264450E+01 1.025799924354E-01 -4.565810116625E-01 6.168847541877E-01 3.700795601242E+01 1.236759691405E-01 3.174359039173E-01 4.130877295514E+01 -4.159086175000E-02 7.679651349840E-01 2.806922154923E+03
 -9.058698159211E-02 -3.569055653702E-01 7.035143659003E-02 -4.222659232976E+02 -7.065070149414E+02 1.057599213531E+00 1.624136959816E+00 -2.146566789867E+00 -9.207647909418E-01 4.400059281697E+02 -7.350634456043E+02 9.698523911009E+00 1.190713777370E+00 -2.902752219689E+00 3.340461779370E-01 -6.705376604769E+01 5.178639750309E-01 -8.906832241293E-01 7.072973937523E+01 -9.764181982248E-01 5.329945314956E-01 -5.785571757604E-01 2.808419766616E+03
 7.281064272571E-02 1.796925157439E-01 -8.297453051953E+00 -6.393226916776E+00 1.192151642973E+00 -8.281294819542E+01 -6.743287709773E-01 -8.226092447409E-01 1.550507646039E+00 -1.453296658734E+01 8.939847417283E+00 -8.501012408354E+01 5.820779857100E-01 1.048582617921E-01 9.279074284861E+00 3.462859686137E-01 -7.504565198015E-02 1.045947754365E+01 -5.327376546232E-01 -1.971927705300E-01 9.902676804606E+00 2.383474207577E+01 -2.230929458171E+01 1.983095746923E+02
 1.641135955330E+00 -3.829907520880E+00 1.057547921403E+00 -1.061790861763E-01 1.775514382740E-01 -6.812810665991E-02 -1.168987234119E+03 -4.362642493491E+02 -2.310660276671E+01 8.657059908966E+00 1.315472917107E+01 2.972698865619E-01 -5.139755877405E+02 -3.681816766062E+01 -2.828844758417E+00 -4.634986246540E+00 -1.084583859602E-01 4.987993899992E-01 -1.708476850196E+01 -3.987672652491E+01 1.699782968218E+00 3.884012758173E+00 -6.771847668624E+00 2.068857785627E+00 2.696181196843E+03
 -3.798036601874E+00 2.651136361130E+00 -1.243962341922E+00 -2.141223816222E+00 -3.743799098933E-01 8.176582799499E-01 -4.371220136010E+02 -7.037479162021E+02 -2.206378739039E+00 -7.691942131965E+00 -1.303794430993E+01 -3.408468441620E-01 -5.921701469588E+00 -1.581385723184E+03 2.225077527649E+01 7.100053323955E+00 -1.956124059054E+00 -7.143938597887E-01 3.565091921987E+01 6.828541691615E+01 -3.969657884100E-01 7.076155376413E-01 6.078761624715E+00 -2.637457776844E+00 3.622662578043E+01 2.817324137967E+03
 8.466921499382E-01 -1.213899249259E+00 5.828973658069E+00 1.200457354508E+00 -5.370299910365E-01 -1.397591256097E+00 -1.713031651048E+01 -1.436202544873E+01 -9.951042960418E+01 4.541486039893E+00 3.376162494272E-01 -9.029075965928E+00 -4.197832056902E+00 7.580010468506E+00 -9.053204902163E+01 -1.900829059999E+00 1.504027099674E+00 1.533520399160E+00 -4.350412561346E+00 5.275699220553E-01 6.558513631698E+00 -2.190025050226E+00 -1.318381419332E-01 2.607230720894E+00 4.854993231588E+01 -3.890998535137E+01 3.264542069686E+02
 9.627167046925E-01 -1.247408008976E+00 3.501109746501E-02 8.611567412780E-01 -1.903236832571E-01 5.089703066098E-02 5.274344022222E+00 -5.743897239156E+00 1.042054864555E+00 -1.191330213201E+03 -4.116519487398E+02 -8.647834940691E+00 -1.322628221883E+03 4.846898807483E+02 -2.363168800898E+01 -2.035516829310E+00 8.080104799489E-01 -1.310608060971E-01 3.844064016123E+01 -2.357958042766E+00 1.415400719302E+00 -1.981629637286E+01 -3.417253265523E+01 1.187024010727E-01 2.298759448228E+01 2.394628400427E+01 -7.277222080401E+00 2.869371844045E+03
 -1.094339832794E+00 2.274127305340E-01 -1.951619738711E-01 -8.420625835060E-01 4.086960664735E-01 -6.934469744242E-02 -8.249328602471E-01 -1.975142709377E+00 1.071473559153E+00 -4.087407046057E+02 -7.109376134831E+02 2.023716678075E+00 4.961975403493E+02 -8.097623327074E+02 1.554201866879E+01 1.340360112485E+00 -8.450202496805E-01 -1.951013887940E-01 -6.800283598909E+01 2.739075260246E+00 -2.848755936728E+00 3.592933076826E+01 5.811040046978E+01 -7.842148168751E-01 8.885882925571E+01 -1.144516170916E+01 6.853610546001E+00 -9.546177116749E+01 2.847181326530E+03
 -2.135462317480E-01 2.467976832830E-01 3.450536610951E+00 -4.086050712616E-01 5.935405946209E-01 5.613889437517E+00 6.208016604621E-01 3.508104831480E-01 -7.247820246975E+00 -8.660703316464E+00 6.815059355116E-01 -8.586487989607E+01 -2.061075798109E+01 1.177991193097E+01 -8.794315182967E+01 -1.830406048560E-01 -3.074679376060E-02 -6.324212383602E-01 9.218111152147E-01 -6.069927137809E-01 1.304674989635E+01 -5.742627969930E-01 -8.224512527810E-01 6.283261184002E+00 -5.237015140617E+00 3.757589966672E+00 4.623570833248E+00 3.536130999149E+01 -2.896162092157E+01 1.938968655448E+02
 -1.014397461544E-01 1.122686964189E-01 -2.560606107443E-02 -9.141339247753E-02 3.834459515410E-02 -4.681518421426E-02 -1.323292513859E-01 2.246177098711E-01 2.037820063296E-01 -1.224148232402E-01 -2.428151392630E-01 1.610036084362E-01 -3.503155139260E-01 1.264519028156E+00 -3.892753330873E-03 1.586034424709E-01 -9.000093789019E-02 -1.477502259353E-01 -6.968166494568E-02 2.412117377518E-01 -1.431111845956E-01 -5.141128041697E-03 1.599387432657E-01 -1.858729892926E-01 9.902067020011E-01 -1.676775300185E+00 4.595406431976E-01 4.333381711328E-01 -2.284705402142E-01 -1.275962051390E-01 2.810011410255E+03
 1.767083862328E-01 -6.089483020644E-02 -9.377364300804E-02 2.032703253629E-01 -8.930174981427E-02 -1.567601194132E-02 -2.545963906997E-01 4.239333234935E-01 6.944668620775E-01 1.636940284575E-01 1.171001151302E-01 1.690449462420E-01 3.945729022276E-01 -1.098792357087E+00 -8.328372178744E-01 -1.493979861663E-01 9.896043542740E-02 -5.108385572153E-02 -7.020948340646E-02 -2.821352939759E-01 -2.963685327749E-01 -2.552287509767E-01 5.188919447498E-02 -1.992416563643E-01 1.227782551921E-01 1.281904068226E+00 -2.267460163044E-01 -4.253339441039E-01 7.447975177025E-01 1.063446325345E-02 2.102592482883E+00 2.800240929065E+03
 -1.238791437693E-02 3.782323061689E-02 -1.285072901542E-01 -1.656614340349E-01 2.102211442120E-01 2.179784977154E-01 2.478736777102E-01 -4.240054462287E-01 9.999398425446E-01 5.012579122547E-02 1.884894375360E-01 -5.177160685026E-01 5.719817453810E-01 -2.457927129081E-01 -3.654359924773E+00 -1.074142767932E-01 1.061226267114E-01 4.612247565649E+00 -2.410837066635E-01 4.815360537368E-02 -7.645919156854E-01 -5.111268311426E-02 -1.530846774338E-01 -5.629454239777E-01 -7.486548303155E-01 7.021833024885E-01 -6.601373934044E-01 -2.168110820037E-01 1.276290814959E-01 1.996963537088E+00 1.864253028336E+01 -1.097581488992E+01 1.945554288676E+02
 -4.074984441831E-02 -5.417070249783E-02 -1.572712379735E-03 -4.860497190435E-02 5.199759255369E-03 -2.893319859973E-02 4.637765562801E-01 -4.198042426078E-01 6.161755099936E-01 3.530090733710E-02 2.365654361090E-01 2.261542723698E-01 8.107349255442E-02 -2.651094704496E-01 -6.232428317466E-01 -4.609882695502E-02 1.550304283400E-02 -1.064383025589E-01 1.179834612787E-01 -3.949220245479E-02 -1.765471065196E-01 6.654093983838E-02 -1.382852191088E-01 -2.978502815054E-01 -1.840940350145E+00 5.377559439513E-01 3.885157458262E-01 -1.588770496191E-01 -1.136139751475E-01 1.138562861306E-02 4.152862951164E+01 7.179513933659E+01 -4.326302910084E-02 2.781814464556E+03
 5.753164246589E-02 -3.054391907728E-02 -6.398287812505E-03 1.259437515420E-01 -7.567006639382E-02 -3.022965284206E-02 -3.387796281688E-01 3.741625321262E-01 2.496059591951E-01 -2.817120747645E-02 -8.766950498162E-02 -6.990885138582E-03 -1.468475087093E-01 -1.099866675582E-02 -9.401187508440E-02 -4.254812253340E-02 5.267838073122E-02 5.273573066405E-03 1.252437463444E-02 -8.124950852114E-02 -1.887773783748E-02 -7.668110695910E-02 4.087561648855E-02 2.429117335974E-02 1.112580741933E+00 -2.668107155253E-01 2.277031756898E-02 1.416865373614E-01 1.109797827170E-01 -3.154247879210E-02 -9.228079368302E-01 -1.751912274098E+00 6.181998908822E-02 2.781393819444E+02 2.859880032359E+03
 -1.778059558410E-01 1.061774524018E-02 3.218399295670E-01 1.307486083457E-01 -1.511978928461E-01 9.349593298413E-02 -5.851780215215E-01 3.668249722001E-01 -4.749440090433E+00 -3.386195913202E-01 -6.934172125333E-01 -1.104461497058E+00 -1.062704376935E+00 3.034354037842E-01 6.686044655249E+00 1.443575181540E-01 -2.519380984038E-01 4.261523853757E-01 5.962184161723E-01 -2.298590062272E-01 3.346353610592E+00 5.002118959243E-01 -5.461054100927E-02 2.082532254731E+00 3.346618589921E+00 -1.977547846922E+00 -1.549256429535E+00 1.095693324309E+00 -1.611665221439E+00 -4.293974110365E-01 1.116669994245E-01 1.803524039461E-01 9.785689736614E+00 1.538139386084E+01 -8.475819544797E+00 1.528997719736E+02
 -2.038905076392E+01 -3.421311556905E+01 -9.626351180349E-03 3.830396636309E+01 -1.882561975071E-01 3.055744607103E-01 -6.971356842735E-01 7.217139476176E-01 -3.976825464593E-01 -2.708473017434E-01 -6.445611659969E-01 2.028405227991E-01 -8.460706220636E-01 2.520394467384E+00 6.201343850328E-01 -1.246112720208E+03 -4.337372155047E+02 -6.799137603353E+00 -1.873065928250E-01 4.859591461466E-01 -4.281903513903E-01 -9.441511879762E-02 4.156793655137E-01 -1.276849120987E-01 3.794799901471E+00 -3.528902209527E+00 6.390528729323E-01 1.007729654678E+00 -1.985444658826E-01 -5.489497704795E-01 -1.945203352733E+01 3.411747514641E+01 -4.846122342595E-01 6.166999061991E-02 1.401734590873E-02 -9.075263312565E-02 2.776679953426E+03
 3.588005016890E+01 6.086721166911E+01 -8.268126972451E-02 -6.776175843951E+01 3.210510656894E-01 -4.758157729384E-01 -9.985055443477E-01 1.291494175175E+00 8.128238158416E-01 -1.495793232911E-01 -3.857981569363E-01 -1.499032153522E-01 1.425601024234E-01 3.376444964146E-01 -1.436108285494E+00 -4.382658568759E+02 -7.247539515365E+02 -1.773122242830E-01 -1.678627472368E-01 -3.103810113128E-01 -1.959907639665E-01 -3.270602345122E-01 1.898348747965E-01 8.689611103908E-02 3.579544261598E+00 -1.431718976192E+00 3.881536718162E-02 3.274169334364E-01 4.459078378348E-01 5.929902015163E-01 -3.248355463778E+01 5.706923682581E+01 -2.502851171391E-01 7.327250676871E-02 -1.093741543231E-01 -4.431774426340E-01 1.722526925300E+01 2.806155387259E+03
 -3.754586093148E-01 -5.695343475913E-01 9.719836450321E+00 6.194719476394E-01 6.112341604142E-02 9.280285444973E+00 1.060133960973E-01 -2.647585322161E-01 1.298774175029E-01 -3.148798138617E-02 1.091991089616E-01 -4.605502802893E-01 -1.888193259173E-01 -1.926744711327E-01 1.583750531252E-01 -6.951186795199E+00 -2.873615846624E-01 -8.325344412380E+01 1.864392102899E-01 2.785985920079E-02 5.711512571754E+00 8.634400360088E-02 -1.381990955356E-01 4.409357054419E+00 3.523800360161E-03 1.034215494164E+00 -1.691843994865E+00 1.076336908321E-01 -3.922896895393E-01 1.320287238794E+00 -6.684101913043E-02 -3.621813904542E-02 8.794121930742E+00 -7.728475800855E-02 1.224383337120E-02 6.646986754648E-01 1.846883731740E+01 -1.085306826114E+01 1.918045259331E+02
 -1.997725099069E-01 -4.447432550757E-03 4.670177570794E-03 -1.905082022811E+01 -3.148253128036E+01 -4.543524419915E-02 2.937961168590E-01 -5.138711298345E-01 6.215399489191E-01 -1.658375140886E-01 1.209971066874E-01 -7.787793419423E-02 -3.684334976766E-01 9.139537764836E-01 -2.483282780588E-01 -1.603546000463E-02 -4.889455842094E-02 1.029743533121E-01 1.730757685056E-01 1.066575572467E-01 9.536554777055E-02 2.760931876935E-01 -2.231312052851E-01 -5.961386503431E-02 -8.296775703873E-01 -7.873853398803E-01 7.009624123542E-01 4.087042149939E-01 -7.938449042992E-01 2.690802895152E-01 3.949521058933E+01 -6.917219514714E+01 6.327622920237E-01 -2.300343077969E+01 4.024548733590E+01 -5.410870859246E-01 3.989148002318E+01 6.710938589072E+01 -1.612296185778E-01 2.772303029378E+03
 -6.705242748254E-02 1.398054536199E-01 8.807390808733E-02 3.327120630996E+01 5.567299967643E+01 -1.041514186050E-01 -8.469987495563E-01 8.634133227289E-01 -3.354769836769E-01 -3.536330228996E-01 -6.263772713174E-01 1.933412147485E-01 -9.971147288740E-01 2.596883717502E+00 1.105204696922E+00 4.745696899388E-01 1.710850410219E-01 -6.744128487251E-02 -1.162174149255E-01 6.017266816230E-01 -1.410547713090E-01 -1.156265306035E-01 3.874007498137E-01 -2.069231401874E-02 4.360252266431E+00 -3.009804397140E+00 4.255292802893E-01 9.950492592131E-01 -1.521851278814E-01 -6.755472774972E-01 -6.687644134194E-02 8.347487034952E-02 -1.425214088432E-01 -4.220892659216E+01 7.397543713107E+01 -4.559016615726E-01 -1.327481066982E-01 -3.787539893075E-01 1.362133614543E-02 -3.882113510358E+01 2.756825964096E+03
 1.462500331248E-01 9.181312073548E-02 -3.354661712767E-02 -5.920005162972E-01 -3.377905390525E-01 8.385959911200E+00 5.760729775055E-01 -1.051885698544E+00 8.689209917043E-01 1.493442764331E-01 3.463722449341E-01 -6.887853096145E-01 1.254978343167E+00 -7.367323378186E-01 -6.164083254970E+00 -2.719254173225E-01 -7.012993291567E-03 -8.511126580638E+00 -6.304019400658E-01 1.352685196826E-01 -2.007216289926E+00 -6.364287989908E-02 -1.424545890008E-01 3.544492596655E+00 -1.957988646319E+00 1.370537624581E+00 -3.231231186594E-02 -5.479512870186E-01 5.362399953335E-01 2.488109687926E+00 2.019600758761E-01 -4.583971618102E-01 1.099166924893E+01 6.078884515801E-02 6.816402971379E-02 1.041118521129E+01 2.309469198151E-02 1.007313398582E+00 8.754546832040E+00 1.536534439542E+01 -1.387881288299E+01 1.874121582611E+02
 9.576361835851E-02 -7.194321164361E-02 -5.378643781781E-03 9.601091392949E-02 -8.225238562241E-03 6.722920185132E-03 -1.375382506820E-02 -1.194596692969E-01 1.283922477858E-01 1.474175255326E-01 1.775553090138E-01 -1.531014608481E-01 3.712178579811E-01 -1.054092948741E+00 -1.022102720077E-01 -1.269984717828E-01 4.909065999163E-02 9.799324478302E-02 -3.201707154104E-02 -2.209263427701E-01 2.954705640477E-02 -2.987828944645E-02 -9.167586357581E-02 1.946341666547E-01 -5.636819127006E-01 1.242557762185E+00 -3.211156030581E-01 -4.221890511507E-01 2.983480330841E-01 5.607369323485E-02 -1.235120949222E+03 4.334919696739E+02 -9.900091269730E+00 -5.067230506008E+02 -1.605290848974E+01 -2.818503034681E+00 2.765011538603E-02 -1.082054495628E-02 -1.627172599692E-02 5.500774667718E-02 6.409870129155E-02 7.252222885122E-02 2.842252866857E+03
 -1.149424568817E-01 1.104684420860E-01 5.557184089092E-02 -2.019952214075E-01 7.822433091842E-02 3.724109597249E-02 1.640413902194E-01 -1.882596863711E-01 -4.768635707666E-01 -1.075203971623E-01 -1.609419850390E-01 -8.339396013459E-02 -1.851972633975E-01 9.032764757254E-01 4.286331065590E-01 1.595881521488E-01 -7.548034859183E-02 6.099560198653E-02 -4.601648364473E-02 2.603778709087E-01 1.038107305721E-01 1.303300909673E-01 4.620189980659E-02 8.443402474207E-02 -9.234031778624E-03 -1.154234163069E+00 1.549243071858E-01 2.605159034566E-01 -4.176357894044E-01 -1.053032626671E-02 4.355804445315E+02 -7.306498422528E+02 5.677609072614E+00 -2.601595208040E+01 -1.541449654027E+03 5.781927705646E+00 -1.016314318900E-01 4.254958843948E-02 4.275540480209E-02 -2.825941180744E-02 -8.288535886278E-02 -5.616750932742E-02 2.939282996817E+01 2.893077287391E+03
 -7.678210502128E-02 -1.349749943887E-01 -3.333327373205E-01 1.807588883547E-01 -2.225199750045E-01 1.253589097559E-01 -1.074452918812E-01 8.725202672280E-01 6.330682292183E-01 -5.686741861025E-02 -2.959325894998E-01 6.310852692476E-01 -1.005918954275E+00 6.495730333544E-01 1.460318247399E+00 2.173195450076E-01 -4.784126208380E-02 -8.145105740296E-01 5.277740825915E-01 1.213903840205E-01 1.143726518228E+00 -6.503802348607E-02 3.320940628304E-01 -9.042203965853E-01 8.790323892131E-01 -1.506413092718E-01 -1.587073802830E+00 4.739262066111E-01 -1.602936747046E-01 1.535685482661E-01 -9.944033246283E+00 5.743694771971E+00 -8.561895771925E+01 -2.732224963159E+00 5.701684991631E+00 -7.641485290444E+01 4.829809174654E-03 -1.746542410857E-01 4.708086753727E+00 4.636718444841E-02 6.614949027092E-02 -1.144430296875E+01 1.890480290405E+01 -1.042963587085E+01 1.850598933255E+02
 1.109573115631E-01 -1.706661739543E-01 -1.138542517154E-01 1.734001542223E-01 4.234645506759E-02 1.191898596366E-01 1.111766277815E-01 -2.839622223601E-01 1.727633304261E-01 1.601204175269E-01 4.325516201084E-01 -9.447122160165E-02 4.778814503060E-01 -1.582140484643E+00 -4.273940577507E-02 -1.986564876653E+01 3.470090315969E+01 -3.020339840631E-01 1.446511735406E-01 -3.599602877292E-01 1.748999379362E-01 -1.963037001199E-02 -2.354044665159E-01 1.550183021861E-01 -1.288819385979E+00 2.613164779381E+00 -6.488572568692E-01 -6.273344532737E-01 3.740199775637E-01 1.858446806708E-01 -1.221279582137E+03 -4.257985298861E+02 -6.342400505265E+00 -1.207781036293E-01 -1.118027589640E-02 2.024258768358E-01 -1.173990070557E+03 4.233994832437E+02 -9.592339670930E+00 -4.715946985127E+02 -7.887561217802E+00 -2.335014561562E+00 -1.965854584140E+01 -3.394726962756E+01 -5.263379547690E-02 2.751861920722E+03
 -1.189359043820E-01 -1.731364993261E-01 6.547440906449E-03 1.255085909352E-02 -7.118081350106E-02 -1.367969735925E-01 8.349770481243E-01 -7.547339121984E-01 -7.296595862007E-01 6.061682548586E-02 2.093551249603E-01 5.592847831403E-01 -3.599009360480E-01 1.597053357684E-01 1.195066300542E+00 -3.302659329656E+01 5.822516022083E+01 -8.284234785323E-01 2.699330155910E-01 3.054293495300E-01 5.174882989201E-02 1.803137170567E-01 -3.448395609464E-03 -4.458576093905E-01 -2.613902098343E+00 7.685434503778E-01 3.356919709186E-02 -1.308904205063E-01 -3.039065609488E-01 -7.529523910048E-01 -4.289398278392E+02 -7.138806837246E+02 -5.615142633541E-01 -5.399862398923E-03 1.310154880928E-01 1.448707526953E-01 4.249388156960E+02 -7.155636117667E+02 5.670029257991E+00 1.150903126761E+00 -1.497126218264E+03 6.692675059262E+00 3.439522010780E+01 5.955429679008E+01 3.334789123683E-01 3.260007717327E+00 2.808965433614E+03
 -4.525159838433E-02 2.027455186048E-01 5.085598832848E+00 -4.516140707520E-02 1.501863700083E-01 -8.965303873588E+00 -5.469359290440E-01 -5.080063292563E-01 -3.108311912659E+00 -2.228831450422E-01 -1.785076866262E-01 -1.215559260832E+00 8.147899089585E-02 2.010694647339E-01 3.691461907797E+00 -8.026246248195E-02 -8.997578406288E-02 1.010068830169E+01 -2.422170653313E-01 -1.031010125062E-01 9.873506502992E-01 3.795716320300E-01 -3.369361593185E-01 2.424659536494E+00 2.360410774909E+00 -1.607147885152E+00 9.103718113691E-01 3.557639287089E-01 -7.864395971889E-01 -1.121251293660E+00 -6.468245438401E+00 -4.608782235574E-01 -8.266164284530E+01 -2.076602157166E-01 -6.957932361713E-02 -8.503940912954E+00 -9.936057972277E+00 5.671161676803E+00 -8.040296735064E+01 -2.389167110642E+00 6.838985381539E+00 -8.296260310087E+01 -1.628789452811E-01 -3.521951427206E-01 9.259363396824E+00 1.824305964643E+01 -1.251683128572E+01 1.925132793585E+02
 3.138960445536E-02 6.194738938738E-02 -4.472820256131E-02 2.258799062459E-02 -3.972959462665E-02 -5.712902304375E-05 -3.308686177997E-01 4.931696903142E-01 -4.959633792539E-01 -1.721395100000E-02 -2.830797720080E-01 7.701135021700E-02 -2.154114516549E-01 6.234920098161E-01 6.241480477454E-01 1.159365817849E-01 -2.214177148607E-02 -8.653370285835E-02 -1.202897229196E-01 2.116953408861E-01 -7.730002848490E-02 -1.146144915219E-01 2.745340692613E-01 -6.822691519196E-02 1.603845373727E+00 -6.196333730821E-01 -4.559376871477E-01 1.515542588036E-01 2.422323708833E-01 -2.365539195653E-01 -5.437796841306E-02 -1.567627933677E-02 3.069817959914E-02 -1.504467207772E+03 -5.290044798912E+02 -7.062754680621E+00 -3.580012382392E-02 -5.877625257665E-02 -5.132871966981E-03 -1.278546908126E+03 4.346003797941E+02 -9.477684756720E+00 4.890515722011E+01 -1.161476464675E+00 2.680596332597E-01 3.926250946106E+01 7.033401027817E-02 1.383398000951E-01 3.073268270700E+03
 8.232232167774E-02 -2.694076196870E-02 -7.790557188525E-02 4.196394977243E-02 1.027375172817E-01 4.888292001311E-02 -8.008135016981E-05 -1.077096197935E-01 9.314377791566E-01 1.182004071379E-01 2.684562956761E-01 -4.374244979040E-01 6.469080980058E-01 -1.348015955915E+00 -1.319570448448E+00 -1.948199397957E-01 7.302381953786E-02 1.660747310704E-01 -7.630775718070E-02 -3.876512533474E-01 2.741323652448E-01 -1.863082112081E-02 -2.513581285379E-01 1.719003373093E-01 -9.674085071442E-01 1.347891474680E+00 -4.389507379881E-01 -4.094493091379E-01 1.910567147788E-01 9.773162792180E-01 -4.013045795904E-02 -5.373718084520E-02 1.988931813004E-01 -5.388099157752E+02 -8.678437155853E+02 -6.113297541657E-01 -9.908842558950E-03 9.316626364596E-02 1.182329797034E-01 4.196879217068E+02 -7.241312677622E+02 5.674177602794E+00 -8.579995849051E+01 2.117282166261E+00 -6.807702283204E-01 7.199637521745E+01 -3.073904960145E-01 6.136747310552E-01 9.108439889592E+01 2.539388771487E+03
 -3.963486212275E-02 -1.813557103892E-01 1.255568806418E-01 3.069221542845E-01 -4.475013317567E-01 4.294220583371E+00 -3.136598111090E-01 9.952543995673E-01 -2.315273580976E+00 -1.182975521061E-01 -4.929475131145E-01 1.044134851058E+00 -1.400048835582E+00 3.457036205951E-01 7.181700294665E+00 2.258494144105E-01 -1.504280142031E-01 -5.269281964648E-01 7.814281936914E-01 -1.196239925457E-01 2.008004946756E+00 1.444036135527E-01 3.717088447458E-01 6.802655120314E-01 1.267041780125E+00 -1.167968684489E+00 2.158119266726E-01 5.999311332418E-01 -4.764045265417E-01 -3.194964305147E+00 5.311607047735E-02 -1.503390134897E-01 -1.206274353636E+01 -7.326458839036E+00 -6.136545636476E-01 -6.785274335773E+01 2.590914537580E-01 -4.672191760243E-01 4.618363523976E+00 -9.398469499271E+00 5.957580382440E+00 -7.909599945363E+01 5.381524912136E-01 1.492090824403E-01 1.202504663851E+01 -2.847817488412E-01 5.732127568579E-01 1.038759135171E+01 1.856511797236E+01 -8.490841809939E+00 1.542387039753E+02
 5.114191573517E-01 2.295396749104E-02 1.873574750560E-01 -1.226935435285E+03 4.458596819400E+02 -1.120339093327E+01 -1.256710447478E+00 1.159146095389E+00 -4.051340183493E-01 1.904123585286E-01 -2.572861145141E-01 -8.390594847001E-01 4.895685788903E-01 -1.782753888354E+00 4.706212416079E-01 4.017658420528E+01 1.154840972936E-01 8.366009352594E-01 -5.182860603986E-01 -3.656680566626E-01 1.575010846404E-01 -2.021341831673E+01 3.590180157610E+01 4.595663700011E-01 3.842108382694E+00 1.120948208477E+00 -1.372959021384E+00 -4.001185622351E-01 1.313600136456E+00 -9.161937135889E-02 1.551601974204E-02 -3.927746285462E-01 4.658396482759E-02 6.104521626731E-02 -1.454589749171E-01 5.716050613166E-01 -8.808151060982E-02 -4.627186296694E-01 2.417576535831E-01 -1.138307340259E+03 -3.894632827968E+02 -4.487280702189E+00 -7.032609444239E-02 2.539469521720E-01 -3.385418421292E-01 3.667288200937E+01 1.375666697478E-01 8.232567981994E-01 -1.783983350009E+01 -3.260051738788E+01 -1.649322063766E-01 2.729445569436E+03
 3.578909297632E-02 -2.008931972793E-01 -5.304922839214E-02 4.555742908365E+02 -7.421515058967E+02 8.077289948174E+00 1.321458671669E+00 -1.557000254145E+00 -8.830374843998E-01 5.549043740905E-01 8.002814285890E-01 5.088539038208E-01 7.875722923055E-01 -2.156675811865E+00 1.038207361011E+00 6.686116263186E+01 -5.685554865750E-01 3.411500381686E-01 1.867440098777E-01 -1.937534192674E-01 -6.811453227653E-02 -3.309480769369E+01 5.917675598271E+01 -7.464737572835E-01 -5.550420539094E+00 4.195469137717E+00 -5.868195206143E-01 -1.436284252490E+00 3.341406203239E-01 -7.432419042645E-01 8.122571469954E-02 7.785051495811E-02 -2.107636039271E-01 -1.027597110966E-01 9.234478493915E-02 2.028755696533E-01 1.788940186522E-01 2.864575253509E-01 -9.674558587322E-02 -3.878223570248E+02 -6.696497138319E+02 1.321907569451E+00 -3.248123065921E-02 -8.582794985465E-02 2.609323824341E-01 -6.512963463898E+01 9.179789017507E-02 -4.550863694501E-01 3.148422795869E+01 5.746528019378E+01 4.137516246089E-01 -8.783664916660E+00 2.821129818676E+03
 -5.433096383993E-02 3.798459514223E-01 5.178706049976E+00 -1.206538615788E+01 8.411439097877E+00 -8.284654059959E+01 1.874822434605E-01 -6.860937817593E-01 -2.324036627813E+00 6.202075984597E-02 3.617709507982E-02 4.055608700787E+00 1.156902928046E+00 -6.288230970686E-01 -8.369784466612E-01 -8.266156815755E-02 -4.216759649192E-03 9.872817313335E+00 -6.086883840107E-01 -3.375596620330E-01 -1.258674611214E+00 -8.648222866093E-03 -2.648651103265E-01 1.092196515645E+01 -8.397174746142E-01 -1.657451731097E+00 2.391888543039E+00 -2.919262025992E-01 -1.623554961201E-02 -7.617513253089E-01 1.810035678577E-02 6.765055692447E-02 4.525191512421E+00 -1.731905974650E-01 6.812697712623E-02 5.206582927610E+00 -4.144259302806E-02 -2.252151207324E-03 -9.257736618296E+00 -4.075933921769E+00 1.412348045724E+00 -7.987483877609E+01 8.454383228164E-02 -8.539322123545E-02 -9.514049346369E-01 3.153360319436E-01 -1.272102838197E-01 8.803575630823E+00 -2.877963517742E-01 -2.744521483999E-01 8.853883244582E+00 1.829563575830E+01 -2.382742744652E+01 1.878391555408E+02