#BIOSYM hessian 1
@Type: Hessian Update
@Units
 distance: 	A
 energy: 	Kcal/Mol
#header
@natom 67

#label
C1      C2      C3      C4      C5      C6      C7      C8      C9      C10     C11     C12     C13     C14     C15     C16     C17     C18     C19     C20     C21     C22     C23     H24     C25     C26     C27     C28     C29     C30     C31     C32     C33     C34     C35     C36     C37     C38     C39     C40     C41     C42     C43     C44     C45     C46     C47     C48     C49     H50     H51     H52     H53     H54     H55     H56     H57     H58     H59     H60     H61     H62     O63     H64     H65     H66     H67

#element
C  C  C  C  C  C  C  C  C  C  C  C  C  C  C  C  C  C  C  C  C  C  C  H  C  C  C  C  C  C  C  C  C  C  C  C  C  C  C  C  C  C  C  C  C  C  C  C  C  H  H  H  H  H  H  H  H  H  H  H  H  H  O  H  H  H  H 

#matrix
201
 2.783918512301E+03
 -2.416103271462E+01 2.819629315902E+03
 0.000000000000E+00 0.000000000000E+00 0.000000000000E+00
 3.930266000480E+01 6.741481739333E+01 0.000000000000E+00 2.791857582044E+03
 -2.853314361417E-01 -3.607645093771E-01 0.000000000000E+00 -2.398663039060E+01 2.767926551512E+03
 0.000000000000E+00 0.000000000000E+00 0.000000000000E+00 0.000000000000E+00 0.000000000000E+00 0.000000000000E+00
 -1.971958329471E+01 3.435160855838E+01 0.000000000000E+00 -6.682752373935E-03 -9.205648217539E-02 0.000000000000E+00 2.812215841395E+03
 -3.400292790987E+01 5.936421147253E+01 0.000000000000E+00 -1.743981796718E-02 -5.871358510409E-02 0.000000000000E+00 -3.213280532872E+01 2.819201713459E+03
 0.000000000000E+00 0.000000000000E+00 0.000000000000E+00 0.000000000000E+00 0.000000000000E+00 0.000000000000E+00 0.000000000000E+00 0.000000000000E+00 0.000000000000E+00
 3.911129298033E+01 -6.841170289352E+01 0.000000000000E+00 -1.961705088047E+01 3.477647821777E+01 0.000000000000E+00 4.178886484102E+01 7.212337482401E+01 0.000000000000E+00 2.788791343804E+03
 -1.864598919219E-01 5.478525511023E-01 0.000000000000E+00 -3.326767578552E+01 5.946148584246E+01 0.000000000000E+00 -2.311875999569E-01 -3.901440114681E-01 0.000000000000E+00 -2.047231980011E+01 2.832750188904E+03
 0.000000000000E+00 0.000000000000E+00 0.000000000000E+00 0.000000000000E+00 0.000000000000E+00 0.000000000000E+00 0.000000000000E+00 0.000000000000E+00 0.000000000000E+00 0.000000000000E+00 0.000000000000E+00 0.000000000000E+00
 -5.039783493160E-02 -1.624267273203E-02 0.000000000000E+00 -6.135942383460E-02 -2.476197918193E-02 0.000000000000E+00 4.216102352473E+01 -7.326049332797E+01 0.000000000000E+00 -2.156416716286E+01 3.799406152610E+01 0.000000000000E+00 2.637467021149E+03
 1.070168815272E-01 6.582847452027E-02 0.000000000000E+00 1.176100723157E-01 1.478240420879E-01 0.000000000000E+00 4.844061058059E-01 -7.611087768274E-01 0.000000000000E+00 -3.572177900299E+01 6.288348672183E+01 0.000000000000E+00 -2.235642106625E+02 2.898405970988E+03
 0.000000000000E+00 0.000000000000E+00 0.000000000000E+00 0.000000000000E+00 0.000000000000E+00 0.000000000000E+00 0.000000000000E+00 0.000000000000E+00 0.000000000000E+00 0.000000000000E+00 0.000000000000E+00 0.000000000000E+00 0.000000000000E+00 0.000000000000E+00 0.000000000000E+00
 -1.232700798010E+03 4.456705308141E+02 0.000000000000E+00 -4.646051092405E+02 -4.575628622723E+00 0.000000000000E+00 5.534800265172E-02 6.824274626967E-02 0.000000000000E+00 7.287936413610E-02 -1.719074354963E-01 0.000000000000E+00 1.393212886317E-01 -3.132978260781E-01 0.000000000000E+00 2.822052932062E+03
 4.405399312744E+02 -7.385722946485E+02 0.000000000000E+00 -3.757313580994E+00 -1.432948692565E+03 0.000000000000E+00 1.236249251625E-01 1.335544918612E-01 0.000000000000E+00 7.640047744240E-02 -2.691176657737E-01 0.000000000000E+00 7.336311393543E-02 -2.015484158830E-01 0.000000000000E+00 -2.858496200777E+00 2.781201092041E+03
 0.000000000000E+00 0.000000000000E+00 0.000000000000E+00 0.000000000000E+00 0.000000000000E+00 0.000000000000E+00 0.000000000000E+00 0.000000000000E+00 0.000000000000E+00 0.000000000000E+00 0.000000000000E+00 0.000000000000E+00 0.000000000000E+00 0.000000000000E+00 0.000000000000E+00 0.000000000000E+00 0.000000000000E+00 0.000000000000E+00
 -1.190526672462E+03 -4.138650257614E+02 0.000000000000E+00 6.499727834881E-02 4.145512106923E-02 0.000000000000E+00 -1.265510570117E+03 4.467029507265E+02 0.000000000000E+00 -4.854638041737E+02 -8.338540926140E+00 0.000000000000E+00 1.451203845789E-02 -2.377008613518E-02 0.000000000000E+00 -1.971154785791E+01 -3.342541186334E+01 0.000000000000E+00 2.820976609161E+03
 -4.134231382472E+02 -7.046865931379E+02 0.000000000000E+00 1.199746700242E-01 1.166620590480E-01 0.000000000000E+00 4.484660081019E+02 -7.451012368123E+02 0.000000000000E+00 -1.041128065111E+01 -1.513295599189E+03 0.000000000000E+00 1.164051566040E-02 -5.421595033816E-02 0.000000000000E+00 3.392400126993E+01 5.815232463807E+01 0.000000000000E+00 -2.716822232520E+01 2.845200542346E+03
 0.000000000000E+00 0.000000000000E+00 0.000000000000E+00 0.000000000000E+00 0.000000000000E+00 0.000000000000E+00 0.000000000000E+00 0.000000000000E+00 0.000000000000E+00 0.000000000000E+00 0.000000000000E+00 0.000000000000E+00 0.000000000000E+00 0.000000000000E+00 0.000000000000E+00 0.000000000000E+00 0.000000000000E+00 0.000000000000E+00 0.000000000000E+00 0.000000000000E+00 0.000000000000E+00
 1.058274412274E-01 1.046921266224E-02 0.000000000000E+00 -1.218210689779E+03 -4.215337866975E+02 0.000000000000E+00 4.312895328859E-02 1.000579235425E-02 0.000000000000E+00 -1.228032815726E+03 4.396065379725E+02 0.000000000000E+00 -6.429544811518E-03 -6.418778457621E-02 0.000000000000E+00 3.717662497710E+01 -2.377668877598E-01 0.000000000000E+00 4.128048640018E+01 -2.679013685403E-01 0.000000000000E+00 2.807864409199E+03
 -9.610023386002E-02 -1.223412082224E-01 0.000000000000E+00 -4.239393884885E+02 -7.081756603424E+02 0.000000000000E+00 2.166209646993E-02 -4.508511177951E-02 0.000000000000E+00 4.379140769465E+02 -7.334635022214E+02 0.000000000000E+00 -5.397900014784E-02 2.427494101500E-02 0.000000000000E+00 -6.641069526312E+01 4.971903840893E-01 0.000000000000E+00 7.030788329732E+01 -4.051938085550E-01 0.000000000000E+00 -8.892894846984E-01 2.808072368720E+03
 0.000000000000E+00 0.000000000000E+00 0.000000000000E+00 0.000000000000E+00 0.000000000000E+00 0.000000000000E+00 0.000000000000E+00 0.000000000000E+00 0.000000000000E+00 0.000000000000E+00 0.000000000000E+00 0.000000000000E+00 0.000000000000E+00 0.000000000000E+00 0.000000000000E+00 0.000000000000E+00 0.000000000000E+00 0.000000000000E+00 0.000000000000E+00 0.000000000000E+00 0.000000000000E+00 0.000000000000E+00 0.000000000000E+00 0.000000000000E+00
 -5.770481746951E-02 3.068675349938E-02 0.000000000000E+00 -3.922849705627E-02 -2.198649125820E-02 0.000000000000E+00 -1.193359087385E+03 -4.089316229762E+02 0.000000000000E+00 -2.118603660854E-03 -2.530990030716E-03 0.000000000000E+00 -5.219443264675E+02 1.155394921339E+01 0.000000000000E+00 1.041357815928E-01 -2.394386990189E-03 0.000000000000E+00 -1.981788324084E+01 -3.423410424243E+01 0.000000000000E+00 1.785803343788E-02 8.802760417680E-03 0.000000000000E+00 2.773378149333E+03
 -6.555837705129E-02 3.689547773663E-02 0.000000000000E+00 -4.299340072677E-02 2.856362853636E-03 0.000000000000E+00 -4.178069875301E+02 -7.066423043933E+02 0.000000000000E+00 1.688863285987E-02 1.606063961389E-02 0.000000000000E+00 1.319827679003E+01 -1.635976565371E+03 0.000000000000E+00 1.004657330925E-01 1.725492241896E-02 0.000000000000E+00 3.445256458757E+01 5.947932282249E+01 0.000000000000E+00 8.420284346545E-03 -7.920263821551E-03 0.000000000000E+00 -3.145567662650E+01 2.958541225743E+03
 0.000000000000E+00 0.000000000000E+00 0.000000000000E+00 0.000000000000E+00 0.000000000000E+00 0.000000000000E+00 0.000000000000E+00 0.000000000000E+00 0.000000000000E+00 0.000000000000E+00 0.000000000000E+00 0.000000000000E+00 0.000000000000E+00 0.000000000000E+00 0.000000000000E+00 0.000000000000E+00 0.000000000000E+00 0.000000000000E+00 0.000000000000E+00 0.000000000000E+00 0.000000000000E+00 0.000000000000E+00 0.000000000000E+00 0.000000000000E+00 0.000000000000E+00 0.000000000000E+00 0.000000000000E+00
 6.869884957493E-02 5.929881735666E-02 0.000000000000E+00 8.480111869271E-02 8.345005521942E-02 0.000000000000E+00 1.286076011836E-02 1.207334185465E-02 0.000000000000E+00 -1.193079697750E+03 -4.182081721387E+02 0.000000000000E+00 -1.338344052009E+03 4.936425972765E+02 0.000000000000E+00 -2.169305609906E-01 -1.335499102865E-01 0.000000000000E+00 3.891700058763E+01 -2.507652029789E-01 0.000000000000E+00 -1.941369528700E+01 -3.294333903198E+01 0.000000000000E+00 4.916597299262E+01 5.426054131503E-01 0.000000000000E+00 2.882402801275E+03
 -9.744200763440E-02 3.184699922976E-03 0.000000000000E+00 -9.383099280196E-02 -1.163682578888E-01 0.000000000000E+00 -3.938036181950E-03 5.981452900588E-03 0.000000000000E+00 -4.096849623773E+02 -7.062813082288E+02 0.000000000000E+00 4.917536842029E+02 -8.190327148473E+02 0.000000000000E+00 2.122776957908E-01 1.001423835072E-01 0.000000000000E+00 -6.855496063860E+01 4.262161951788E-01 0.000000000000E+00 3.422760021550E+01 5.814567335487E+01 0.000000000000E+00 8.148661621582E+01 8.655348601726E-01 0.000000000000E+00 -9.674149993189E+01 2.845616444112E+03
 0.000000000000E+00 0.000000000000E+00 0.000000000000E+00 0.000000000000E+00 0.000000000000E+00 0.000000000000E+00 0.000000000000E+00 0.000000000000E+00 0.000000000000E+00 0.000000000000E+00 0.000000000000E+00 0.000000000000E+00 0.000000000000E+00 0.000000000000E+00 0.000000000000E+00 0.000000000000E+00 0.000000000000E+00 0.000000000000E+00 0.000000000000E+00 0.000000000000E+00 0.000000000000E+00 0.000000000000E+00 0.000000000000E+00 0.000000000000E+00 0.000000000000E+00 0.000000000000E+00 0.000000000000E+00 0.000000000000E+00 0.000000000000E+00 0.000000000000E+00
 -7.871070385037E-01 3.712450782722E-01 0.000000000000E+00 -8.642563924722E-01 2.458520688006E-01 0.000000000000E+00 -1.534591569010E-01 9.621795223275E-02 0.000000000000E+00 8.392612927462E-02 4.672915324216E-01 0.000000000000E+00 -1.260865128668E-02 4.087461825975E-01 0.000000000000E+00 1.675663101776E+00 5.052369376276E-01 0.000000000000E+00 1.295034070011E-01 1.823592392921E-01 0.000000000000E+00 -2.015854528378E-01 -7.817478694367E-01 0.000000000000E+00 -1.892025740200E-01 -1.207780116653E-01 0.000000000000E+00 1.094712140572E-01 -4.095122603507E-01 0.000000000000E+00 2.818395324188E+03
 1.520602091596E+00 -5.708912880810E+00 0.000000000000E+00 5.454558927584E-01 -5.622434632537E+00 0.000000000000E+00 -7.395221918550E-01 -2.297352397693E+00 0.000000000000E+00 -1.032448718544E+00 1.274119717409E+00 0.000000000000E+00 -8.794520829539E-01 9.021321724318E-01 0.000000000000E+00 1.631596691673E+00 6.028100132622E+00 0.000000000000E+00 -1.707505990657E-01 1.217139221156E+00 0.000000000000E+00 1.898435272683E+00 9.911258881351E-01 0.000000000000E+00 6.365659359453E-01 4.136156361467E-01 0.000000000000E+00 1.427854557510E+00 5.271351914389E-01 0.000000000000E+00 -2.691594190230E+00 2.735401301329E+03
 0.000000000000E+00 0.000000000000E+00 0.000000000000E+00 0.000000000000E+00 0.000000000000E+00 0.000000000000E+00 0.000000000000E+00 0.000000000000E+00 0.000000000000E+00 0.000000000000E+00 0.000000000000E+00 0.000000000000E+00 0.000000000000E+00 0.000000000000E+00 0.000000000000E+00 0.000000000000E+00 0.000000000000E+00 0.000000000000E+00 0.000000000000E+00 0.000000000000E+00 0.000000000000E+00 0.000000000000E+00 0.000000000000E+00 0.000000000000E+00 0.000000000000E+00 0.000000000000E+00 0.000000000000E+00 0.000000000000E+00 0.000000000000E+00 0.000000000000E+00 0.000000000000E+00 0.000000000000E+00 0.000000000000E+00
 1.441769142656E+01 -1.022571172016E+01 0.000000000000E+00 1.356429830254E+01 -5.919935636911E+00 0.000000000000E+00 7.646633714814E-01 -3.526750101957E+00 0.000000000000E+00 -9.785086558380E-01 -3.505947229077E+00 0.000000000000E+00 2.914196746296E-01 -4.259204730515E+00 0.000000000000E+00 -2.457559571338E+01 -1.507453180771E+00 0.000000000000E+00 -3.418325537431E+00 -1.767364357289E+00 0.000000000000E+00 1.029836888004E+00 9.045833426627E+00 0.000000000000E+00 3.136182132234E+00 2.220972977253E+00 0.000000000000E+00 -1.083294478237E+00 5.579194078779E+00 0.000000000000E+00 1.921261418125E+01 5.901909172806E+01 0.000000000000E+00 2.020296140354E+03
 1.497843767380E+01 4.298471291596E+00 0.000000000000E+00 1.529821359263E+01 1.197315230563E+01 0.000000000000E+00 2.427431254618E+00 2.991807080111E+00 0.000000000000E+00 6.198329157193E-01 -8.725866075827E+00 0.000000000000E+00 3.011278616144E+00 -8.480297714997E+00 0.000000000000E+00 -4.042525509075E+01 -2.009200154750E+01 0.000000000000E+00 -2.572847688366E+00 -5.043159503276E+00 0.000000000000E+00 -2.612442064062E+00 8.218088317459E+00 0.000000000000E+00 2.135106644906E+00 1.691438837601E+00 0.000000000000E+00 -5.444707173738E+00 5.696383707747E+00 0.000000000000E+00 4.761314112358E+01 1.483675060508E+02 0.000000000000E+00 3.911294035243E+02 2.228175696737E+03
 0.000000000000E+00 0.000000000000E+00 0.000000000000E+00 0.000000000000E+00 0.000000000000E+00 0.000000000000E+00 0.000000000000E+00 0.000000000000E+00 0.000000000000E+00 0.000000000000E+00 0.000000000000E+00 0.000000000000E+00 0.000000000000E+00 0.000000000000E+00 0.000000000000E+00 0.000000000000E+00 0.000000000000E+00 0.000000000000E+00 0.000000000000E+00 0.000000000000E+00 0.000000000000E+00 0.000000000000E+00 0.000000000000E+00 0.000000000000E+00 0.000000000000E+00 0.000000000000E+00 0.000000000000E+00 0.000000000000E+00 0.000000000000E+00 0.000000000000E+00 0.000000000000E+00 0.000000000000E+00 0.000000000000E+00 0.000000000000E+00 0.000000000000E+00 0.000000000000E+00
 -2.136904913060E+01 -3.369398718956E+01 0.000000000000E+00 3.789588249096E+01 -6.671460645532E-02 0.000000000000E+00 1.731443201719E-01 3.739063739250E-01 0.000000000000E+00 1.484842778237E-01 -1.898380351981E-01 0.000000000000E+00 -2.111565132573E-02 1.061319501625E-01 0.000000000000E+00 -1.243068871816E+03 -4.354172402313E+02 0.000000000000E+00 1.648170068980E-01 -5.862290594208E-02 0.000000000000E+00 9.617287987933E-02 -2.460031744467E-02 0.000000000000E+00 -2.203584130272E-01 -2.240710130376E-01 0.000000000000E+00 -2.421657585910E-02 -2.239684354889E-01 0.000000000000E+00 -2.118206286025E+01 4.772256915289E+01 0.000000000000E+00 4.543798919820E+01 2.127677450209E+01 0.000000000000E+00 2.773867878684E+03
 3.581581696265E+01 6.074694314116E+01 0.000000000000E+00 -6.759587702353E+01 3.649447269850E-01 0.000000000000E+00 -4.574055812523E-02 2.164234979957E-02 0.000000000000E+00 2.988909867786E-02 -2.982549242193E-02 0.000000000000E+00 7.012030687083E-02 -7.199325709343E-02 0.000000000000E+00 -4.402916590566E+02 -7.264906369802E+02 0.000000000000E+00 -5.911592535175E-02 -1.066432243469E-01 0.000000000000E+00 -1.356903957964E-01 5.096993518883E-02 0.000000000000E+00 3.965364761354E-02 9.946069034819E-03 0.000000000000E+00 -9.852808026800E-02 6.908754474000E-02 0.000000000000E+00 -3.190420700371E+01 5.640403595581E+01 0.000000000000E+00 -9.460044898352E+00 -1.556285414678E+01 0.000000000000E+00 1.840339706662E+01 2.806534126737E+03
 0.000000000000E+00 0.000000000000E+00 0.000000000000E+00 0.000000000000E+00 0.000000000000E+00 0.000000000000E+00 0.000000000000E+00 0.000000000000E+00 0.000000000000E+00 0.000000000000E+00 0.000000000000E+00 0.000000000000E+00 0.000000000000E+00 0.000000000000E+00 0.000000000000E+00 0.000000000000E+00 0.000000000000E+00 0.000000000000E+00 0.000000000000E+00 0.000000000000E+00 0.000000000000E+00 0.000000000000E+00 0.000000000000E+00 0.000000000000E+00 0.000000000000E+00 0.000000000000E+00 0.000000000000E+00 0.000000000000E+00 0.000000000000E+00 0.000000000000E+00 0.000000000000E+00 0.000000000000E+00 0.000000000000E+00 0.000000000000E+00 0.000000000000E+00 0.000000000000E+00 0.000000000000E+00 0.000000000000E+00 0.000000000000E+00
 -1.463292170793E+00 6.095116105463E+00 0.000000000000E+00 -1.880448199564E+01 -2.728846948688E+01 0.000000000000E+00 1.289087945556E+00 2.596390037673E+00 0.000000000000E+00 1.091734844387E+00 -2.461752884676E+00 0.000000000000E+00 8.210126226299E-01 -1.436354659771E+00 0.000000000000E+00 -2.921447691392E+00 -6.951020607069E+00 0.000000000000E+00 1.225550641879E-01 -1.623830694978E+00 0.000000000000E+00 -1.131679951436E+00 7.693757772696E-01 0.000000000000E+00 -5.985143795224E-01 -5.817371730633E-01 0.000000000000E+00 -1.631036518168E+00 -3.221063001272E-02 0.000000000000E+00 4.110921952329E+01 2.285218224677E+01 0.000000000000E+00 5.892515238039E+01 -1.157221454105E+02 0.000000000000E+00 2.431418304764E+01 6.782845596461E+01 0.000000000000E+00 2.657365758023E+03
 -3.606470358772E-01 -1.065114646592E+00 0.000000000000E+00 3.240940373790E+01 5.537902618472E+01 0.000000000000E+00 -5.518677565007E-01 -5.622832278864E-01 0.000000000000E+00 -1.980425034945E-01 1.224174728662E+00 0.000000000000E+00 -1.653721247789E-01 7.302400350385E-01 0.000000000000E+00 2.365102716169E+00 2.027830434004E+00 0.000000000000E+00 1.191064328962E-01 5.614283714431E-01 0.000000000000E+00 -1.636334422436E-01 -1.295523384968E+00 0.000000000000E+00 -1.139430819951E-03 1.026106246769E-01 0.000000000000E+00 4.893104112593E-01 -4.361488867692E-01 0.000000000000E+00 2.322729293798E+00 -3.512661759259E+01 0.000000000000E+00 -5.859992293133E+01 1.170978816311E+02 0.000000000000E+00 2.256808588177E+00 8.034317938763E-01 0.000000000000E+00 -7.547764669454E+00 2.756529154610E+03
 0.000000000000E+00 0.000000000000E+00 0.000000000000E+00 0.000000000000E+00 0.000000000000E+00 0.000000000000E+00 0.000000000000E+00 0.000000000000E+00 0.000000000000E+00 0.000000000000E+00 0.000000000000E+00 0.000000000000E+00 0.000000000000E+00 0.000000000000E+00 0.000000000000E+00 0.000000000000E+00 0.000000000000E+00 0.000000000000E+00 0.000000000000E+00 0.000000000000E+00 0.000000000000E+00 0.000000000000E+00 0.000000000000E+00 0.000000000000E+00 0.000000000000E+00 0.000000000000E+00 0.000000000000E+00 0.000000000000E+00 0.000000000000E+00 0.000000000000E+00 0.000000000000E+00 0.000000000000E+00 0.000000000000E+00 0.000000000000E+00 0.000000000000E+00 0.000000000000E+00 0.000000000000E+00 0.000000000000E+00 0.000000000000E+00 0.000000000000E+00 0.000000000000E+00 0.000000000000E+00
 -8.493107920820E+00 4.702787455866E+00 0.000000000000E+00 -6.950295246702E+00 4.014062558179E-02 0.000000000000E+00 1.799835043412E-01 1.518353302751E+00 0.000000000000E+00 6.661478385344E-01 1.301470754380E+00 0.000000000000E+00 -4.771983719535E-01 2.201943965800E+00 0.000000000000E+00 1.518198564941E+01 1.127786054057E+00 0.000000000000E+00 1.518454815715E+00 5.939363736796E-01 0.000000000000E+00 7.180631324631E-02 -3.044676896671E+00 0.000000000000E+00 -1.511907618020E+00 -1.324676082055E+00 0.000000000000E+00 8.340630313582E-01 -2.538716196036E+00 0.000000000000E+00 -1.254444439196E+03 4.579045147509E+02 0.000000000000E+00 -2.749455515001E+02 4.216656031880E+01 0.000000000000E+00 -2.645073684281E+01 7.213218662610E+00 0.000000000000E+00 -5.261632053357E+01 1.023022195137E+01 0.000000000000E+00 2.820561750836E+03
 -3.095447194056E-01 -4.232277062019E+00 0.000000000000E+00 -2.169735382590E+00 -2.063312711008E+00 0.000000000000E+00 -1.527723819679E+00 -1.957274220059E+00 0.000000000000E+00 -7.939154851596E-01 3.194158144980E+00 0.000000000000E+00 -6.971249415474E-01 2.020153531943E+00 0.000000000000E+00 5.712919463055E+00 7.045376335607E+00 0.000000000000E+00 3.157461233651E-01 1.854612413921E+00 0.000000000000E+00 4.737117722544E-01 -2.743442545910E+00 0.000000000000E+00 9.578225673924E-02 3.081828926301E-01 0.000000000000E+00 1.565750405281E+00 -9.589552050453E-01 0.000000000000E+00 4.331547346315E+02 -8.149031303679E+02 0.000000000000E+00 -2.165398181424E+02 -1.290776766499E+03 0.000000000000E+00 9.442316658084E+00 3.149694685093E-01 0.000000000000E+00 9.695818513245E+01 -2.069962202274E+01 0.000000000000E+00 4.342901753405E+01 2.826140205394E+03
 0.000000000000E+00 0.000000000000E+00 0.000000000000E+00 0.000000000000E+00 0.000000000000E+00 0.000000000000E+00 0.000000000000E+00 0.000000000000E+00 0.000000000000E+00 0.000000000000E+00 0.000000000000E+00 0.000000000000E+00 0.000000000000E+00 0.000000000000E+00 0.000000000000E+00 0.000000000000E+00 0.000000000000E+00 0.000000000000E+00 0.000000000000E+00 0.000000000000E+00 0.000000000000E+00 0.000000000000E+00 0.000000000000E+00 0.000000000000E+00 0.000000000000E+00 0.000000000000E+00 0.000000000000E+00 0.000000000000E+00 0.000000000000E+00 0.000000000000E+00 0.000000000000E+00 0.000000000000E+00 0.000000000000E+00 0.000000000000E+00 0.000000000000E+00 0.000000000000E+00 0.000000000000E+00 0.000000000000E+00 0.000000000000E+00 0.000000000000E+00 0.000000000000E+00 0.000000000000E+00 0.000000000000E+00 0.000000000000E+00 0.000000000000E+00
 1.110850754108E+00 -1.660620839095E+00 0.000000000000E+00 8.596894962662E-01 -1.134965234453E+00 0.000000000000E+00 -1.075917681197E-01 -6.786863357534E-01 0.000000000000E+00 -3.173635783811E-01 8.083645056098E-02 0.000000000000E+00 -1.911697852040E-01 -8.303749322171E-02 0.000000000000E+00 -2.063760108087E+01 3.545513477179E+01 0.000000000000E+00 -1.640383479955E-01 2.054282638035E-01 0.000000000000E+00 4.665776108130E-01 5.604852895009E-01 0.000000000000E+00 3.099443970637E-01 2.722772133398E-01 0.000000000000E+00 2.946536912843E-01 4.040474325887E-01 0.000000000000E+00 -1.223289513040E+03 -4.391388570880E+02 0.000000000000E+00 -1.818851875643E+01 3.094924637303E+00 0.000000000000E+00 -1.171530698710E+03 4.208880909813E+02 0.000000000000E+00 -4.493937113115E+02 -1.348373780263E+01 0.000000000000E+00 3.285256348476E+00 -5.753690830050E+01 0.000000000000E+00 2.751956534630E+03
 -1.654977604040E-01 8.612343926366E-01 0.000000000000E+00 1.133593778567E-01 2.565252421657E-02 0.000000000000E+00 4.343575607159E-01 4.176600524442E-01 0.000000000000E+00 1.300112067153E-01 -8.178324894091E-01 0.000000000000E+00 3.602331177490E-02 -3.880862451754E-01 0.000000000000E+00 -3.382524761797E+01 5.728573859966E+01 0.000000000000E+00 1.311715296701E-02 -2.708426336035E-01 0.000000000000E+00 2.915269310561E-01 7.827691279840E-01 0.000000000000E+00 -7.807231811815E-02 -1.155723739680E-01 0.000000000000E+00 -2.189803801299E-01 1.803415179995E-01 0.000000000000E+00 -4.306953422694E+02 -6.874027179273E+02 0.000000000000E+00 4.572591694363E+01 -1.936379170316E+01 0.000000000000E+00 4.202115254120E+02 -7.152477347715E+02 0.000000000000E+00 -1.949352976290E+01 -1.494866160449E+03 0.000000000000E+00 1.547283028030E+01 7.561293223037E+01 0.000000000000E+00 8.419526768321E+00 2.804894662730E+03
 0.000000000000E+00 0.000000000000E+00 0.000000000000E+00 0.000000000000E+00 0.000000000000E+00 0.000000000000E+00 0.000000000000E+00 0.000000000000E+00 0.000000000000E+00 0.000000000000E+00 0.000000000000E+00 0.000000000000E+00 0.000000000000E+00 0.000000000000E+00 0.000000000000E+00 0.000000000000E+00 0.000000000000E+00 0.000000000000E+00 0.000000000000E+00 0.000000000000E+00 0.000000000000E+00 0.000000000000E+00 0.000000000000E+00 0.000000000000E+00 0.000000000000E+00 0.000000000000E+00 0.000000000000E+00 0.000000000000E+00 0.000000000000E+00 0.000000000000E+00 0.000000000000E+00 0.000000000000E+00 0.000000000000E+00 0.000000000000E+00 0.000000000000E+00 0.000000000000E+00 0.000000000000E+00 0.000000000000E+00 0.000000000000E+00 0.000000000000E+00 0.000000000000E+00 0.000000000000E+00 0.000000000000E+00 0.000000000000E+00 0.000000000000E+00 0.000000000000E+00 0.000000000000E+00 0.000000000000E+00
 -2.348290020070E+00 -5.608238299418E-01 0.000000000000E+00 -2.289862877068E+00 -1.230830664383E+00 0.000000000000E+00 -4.984261037844E-01 -4.964702661234E-01 0.000000000000E+00 -1.724509184238E-01 1.582427577586E+00 0.000000000000E+00 -3.866777003917E-01 1.312719177750E+00 0.000000000000E+00 6.306668393993E+00 2.457379794921E+00 0.000000000000E+00 4.060504656280E-01 7.324054460673E-01 0.000000000000E+00 -1.166493052411E-01 -1.785428928030E+00 0.000000000000E+00 -2.364317614726E-01 -1.202674444888E-01 0.000000000000E+00 8.638902951249E-01 -8.958479426367E-01 0.000000000000E+00 -3.122125759199E+00 -3.589505634245E+01 0.000000000000E+00 -1.368397743073E+03 -3.406481547361E+02 0.000000000000E+00 -3.272093085555E+00 2.656660206628E+00 0.000000000000E+00 -1.250739326116E+03 4.305401119603E+02 0.000000000000E+00 3.832294065764E+01 -4.373661601440E+01 0.000000000000E+00 3.683886098069E+01 -7.877264031791E-01 0.000000000000E+00 3.123431998484E+03
 -5.709623838789E+00 3.413937151742E+00 0.000000000000E+00 -4.958008941378E+00 1.188769314140E+00 0.000000000000E+00 -2.668988692964E-01 1.053580990793E+00 0.000000000000E+00 5.614839576410E-01 1.583210862859E+00 0.000000000000E+00 -2.130414294556E-01 1.848217068839E+00 0.000000000000E+00 1.042743570820E+01 1.067447893473E+00 0.000000000000E+00 1.062592306229E+00 5.668761540944E-01 0.000000000000E+00 -5.195436419936E-01 -3.250796855117E+00 0.000000000000E+00 -1.146142913800E+00 -8.868941037479E-01 0.000000000000E+00 5.156223342315E-01 -2.136064141037E+00 0.000000000000E+00 -4.358335614877E+00 2.991673696511E+00 0.000000000000E+00 -4.648981799575E+02 -8.625052774967E+02 0.000000000000E+00 -1.710170415737E+01 4.999670299569E+00 0.000000000000E+00 3.929823680861E+02 -7.160349470134E+02 0.000000000000E+00 -1.864508057655E+02 2.270076083727E+01 0.000000000000E+00 8.092673828660E+01 -1.463747461294E+01 0.000000000000E+00 9.346493572329E+00 2.596616449024E+03
 0.000000000000E+00 0.000000000000E+00 0.000000000000E+00 0.000000000000E+00 0.000000000000E+00 0.000000000000E+00 0.000000000000E+00 0.000000000000E+00 0.000000000000E+00 0.000000000000E+00 0.000000000000E+00 0.000000000000E+00 0.000000000000E+00 0.000000000000E+00 0.000000000000E+00 0.000000000000E+00 0.000000000000E+00 0.000000000000E+00 0.000000000000E+00 0.000000000000E+00 0.000000000000E+00 0.000000000000E+00 0.000000000000E+00 0.000000000000E+00 0.000000000000E+00 0.000000000000E+00 0.000000000000E+00 0.000000000000E+00 0.000000000000E+00 0.000000000000E+00 0.000000000000E+00 0.000000000000E+00 0.000000000000E+00 0.000000000000E+00 0.000000000000E+00 0.000000000000E+00 0.000000000000E+00 0.000000000000E+00 0.000000000000E+00 0.000000000000E+00 0.000000000000E+00 0.000000000000E+00 0.000000000000E+00 0.000000000000E+00 0.000000000000E+00 0.000000000000E+00 0.000000000000E+00 0.000000000000E+00 0.000000000000E+00 0.000000000000E+00 0.000000000000E+00
 7.407550128689E-01 -8.673323321807E-01 0.000000000000E+00 -1.229011910378E+03 4.452889830640E+02 0.000000000000E+00 -3.208199685594E-01 -3.657103328790E-01 0.000000000000E+00 -1.378991209642E-01 4.850758959103E-01 0.000000000000E+00 3.245309734737E-02 1.056138995801E-01 0.000000000000E+00 3.962380545718E+01 4.649765682614E-01 0.000000000000E+00 -1.068436005814E-01 1.626714877900E-01 0.000000000000E+00 -2.023684055997E+01 3.513057695577E+01 0.000000000000E+00 1.505488675869E-01 1.789989311978E-01 0.000000000000E+00 6.816858554249E-02 2.014060279236E-02 0.000000000000E+00 2.975141744006E+00 -2.060527409982E+01 0.000000000000E+00 -5.541766182412E+01 -6.305166838162E+00 0.000000000000E+00 3.753963375246E+00 -3.698112411851E-01 0.000000000000E+00 -1.116455814631E+03 -3.928906629347E+02 0.000000000000E+00 2.426758546682E+01 -8.523162317956E+00 0.000000000000E+00 2.991223489547E+01 2.137034160421E+00 0.000000000000E+00 -1.605543866196E+01 -1.393804330729E+01 0.000000000000E+00 2.728153566238E+03
 3.014011907687E-01 -1.306655691051E+00 0.000000000000E+00 4.545182186480E+02 -7.405960361762E+02 0.000000000000E+00 -2.527418228942E-01 -5.598893344964E-01 0.000000000000E+00 -2.562073429157E-01 4.806141209995E-01 0.000000000000E+00 -1.943531320132E-01 2.929797507133E-01 0.000000000000E+00 6.781100702591E+01 1.194548583233E+00 0.000000000000E+00 -4.068933776450E-03 3.620212164723E-01 0.000000000000E+00 -3.307223949143E+01 5.923782940295E+01 0.000000000000E+00 1.260616388145E-01 1.289997318093E-01 0.000000000000E+00 3.606046101120E-01 1.372266187758E-02 0.000000000000E+00 -6.526195079262E-01 -1.797299230157E+01 0.000000000000E+00 -1.644455210456E+01 3.525979405425E+01 0.000000000000E+00 3.205558298847E+00 -1.381690931676E-01 0.000000000000E+00 -3.668235364943E+02 -6.781602397314E+02 0.000000000000E+00 8.907005468388E+00 -2.009841296629E+01 0.000000000000E+00 -6.944454376782E+01 5.044931619545E+00 0.000000000000E+00 2.370694455072E+01 6.173441850865E+01 0.000000000000E+00 -1.162468354322E+01 2.815988367518E+03
 0.000000000000E+00 0.000000000000E+00 0.000000000000E+00 0.000000000000E+00 0.000000000000E+00 0.000000000000E+00 0.000000000000E+00 0.000000000000E+00 0.000000000000E+00 0.000000000000E+00 0.000000000000E+00 0.000000000000E+00 0.000000000000E+00 0.000000000000E+00 0.000000000000E+00 0.000000000000E+00 0.000000000000E+00 0.000000000000E+00 0.000000000000E+00 0.000000000000E+00 0.000000000000E+00 0.000000000000E+00 0.000000000000E+00 0.000000000000E+00 0.000000000000E+00 0.000000000000E+00 0.000000000000E+00 0.000000000000E+00 0.000000000000E+00 0.000000000000E+00 0.000000000000E+00 0.000000000000E+00 0.000000000000E+00 0.000000000000E+00 0.000000000000E+00 0.000000000000E+00 0.000000000000E+00 0.000000000000E+00 0.000000000000E+00 0.000000000000E+00 0.000000000000E+00 0.000000000000E+00 0.000000000000E+00 0.000000000000E+00 0.000000000000E+00 0.000000000000E+00 0.000000000000E+00 0.000000000000E+00 0.000000000000E+00 0.000000000000E+00 0.000000000000E+00 0.000000000000E+00 0.000000000000E+00 0.000000000000E+00