#BIOSYM hessian 1
@Type: Hessian Update
@Units
 distance: 	A
 energy: 	Kcal/Mol
#header
@natom 67

#label
C1      C2      C3      C4      C5      C6      C7      C8      C9      C10     C11     C12     C13     C14     C15     C16     C17     C18     C19     C20     C21     C22     C23     H24     C25     C26     C27     C28     C29     C30     C31     C32     C33     C34     C35     C36     C37     C38     C39     C40     C41     C42     C43     C44     C45     C46     C47     C48     C49     H50     H51     H52     H53     H54     H55     H56     H57     H58     H59     H60     H61     H62     H63     H64     H65     H66     O67

#element
C  C  C  C  C  C  C  C  C  C  C  C  C  C  C  C  C  C  C  C  C  C  C  H  C  C  C  C  C  C  C  C  C  C  C  C  C  C  C  C  C  C  C  C  C  C  C  C  C  H  H  H  H  H  H  H  H  H  H  H  H  H  H  H  H  H  O 

#matrix
201
 2.791786222412E+03
 -1.406386823716E+01 2.810131725555E+03
 -2.559135429605E+01 -3.760161607334E+01 1.945257165484E+02
 3.937600482728E+01 6.592941040540E+01 -9.805813084397E+00 2.786748786101E+03
 -7.346399022293E-01 -1.200234126214E+00 -1.444311888324E+00 -1.906359271889E+01 2.742856388307E+03
 -4.250449753373E+00 -2.710238586441E+00 8.642513573052E+00 9.198196937654E+01 -2.494572109547E+02 2.200106416922E+02
 -1.942103645597E+01 3.423738360619E+01 -7.005966864089E-01 -3.454073985302E-01 1.753358762462E-01 -7.638697920309E-01 2.818259282464E+03
 -3.382473105456E+01 6.065702689562E+01 -1.387699392306E+00 8.770283391462E-01 -2.348311901734E-01 6.898575145812E-01 3.297377678733E+01 2.762832966928E+03
 8.030485390876E-01 -7.255178382080E-01 9.563801752012E+00 8.148919511373E-01 6.383954113413E-01 1.203316305117E+00 4.472159335503E+01 -7.895878857632E+00 1.905618339128E+02
 3.673932536397E+01 -6.645533263652E+01 5.156954707848E+00 -1.859186818110E+01 3.438410170773E+01 -1.207792774438E+00 4.066446387968E+01 6.856252145548E+01 -4.063189236730E+00 2.797843454083E+03
 -1.721322866098E-01 1.150101499484E+00 9.371719861206E-01 -3.203624053962E+01 5.838192314787E+01 -3.275452089405E+00 -5.410832185905E-01 -8.755452691636E-01 -1.431767500886E-03 1.169469334832E+01 2.796949742141E+03
 1.089390873482E+00 -9.450595977484E-01 8.986323414832E+00 1.437945398372E+00 -2.020982211113E+00 7.044570239703E+00 -1.942349475325E+00 4.249608391973E-01 7.347532815410E+00 8.035749831791E+01 -1.182884464910E+02 2.059526244780E+02
 -7.602141842130E-01 3.292316502729E-01 7.011644030975E-01 -1.698179205967E+00 8.306968909309E-01 -1.405744867281E-01 4.778437574919E+01 -8.446252699544E+01 4.594295638963E+00 -2.160794988290E+01 3.623141837559E+01 -1.174949883464E+00 2.811404079047E+03
 -2.855510388856E-01 4.691366245980E-01 1.357139801533E+00 -9.968935423329E-01 1.080319061674E-01 7.384932952512E-01 -2.428680236835E+00 8.600448917926E-01 1.022704306364E+00 -3.465256268514E+01 6.099058411739E+01 -1.936326747708E+00 -8.064563337148E+01 3.167529921390E+03
 -5.430534116387E-01 1.156858091944E-01 -7.513036094992E-01 -2.704454601238E-01 3.739735054677E-02 1.360210776501E+00 1.897338363088E+00 -1.691255295415E+00 1.160958836885E+01 -7.404634571767E-02 -1.654485785847E+00 6.854489738596E+00 7.953063545844E+01 -8.962397932041E+01 1.695919074332E+02
 -1.218624615373E+03 4.431023127237E+02 1.420408954376E+01 -4.639076924429E+02 -9.231402260543E+00 9.538429562861E+00 5.103991234091E-01 2.644907667787E+00 1.370545898646E+00 1.317439909100E+00 1.725031759527E+00 -3.007844632735E+00 5.844730105936E+00 2.937539052033E+00 4.484453391697E-02 2.814339508681E+03
 4.386250219474E+02 -7.352088547996E+02 2.646917606204E+01 -8.049496222201E+00 -1.420270759454E+03 1.256708086586E+02 2.351852320399E-01 7.785338262242E-01 8.488010568507E-01 5.755782903380E-01 1.856823063485E-01 -1.327355083204E+00 -4.349011805201E-01 -4.569302381107E-02 -2.144244497366E-01 -3.513892383951E+00 2.750143027812E+03
 3.624172510658E+00 1.952765214516E+01 -8.506558277088E+01 -3.882259538392E+00 1.223064755884E+02 -9.343930976507E+01 2.755275136398E+00 4.263568128563E-01 4.030374550284E+00 -7.078000728977E-01 -1.303086545724E+00 -7.297248153140E+00 -7.992040968784E-01 -1.458511980003E+00 -1.216447551199E+00 -1.072448181238E+02 -2.126415724217E+02 2.153742302923E+02
 -1.211166993090E+03 -4.161630597252E+02 1.416019475259E+01 -3.885149318222E-01 4.986492434821E-02 4.973810160202E-01 -1.242699788581E+03 4.431372087253E+02 -1.880130912963E+01 -4.697268004115E+02 -5.930948045284E+00 -5.636339491354E+00 1.198461925855E+00 6.089068230063E-01 1.016720851390E+00 -2.009667610847E+01 -3.294933790847E+01 -8.476771448157E-01 2.809771972626E+03
 -4.138681406114E+02 -6.975535505098E+02 1.530236896880E+01 -5.222040792919E-02 -1.034928350028E-01 -2.954029500937E+00 4.513302350543E+02 -7.357740889303E+02 1.841388711723E+01 -9.663730601641E+00 -1.454784156533E+03 5.134020576257E+01 6.676736302482E-01 -9.803063142682E-02 -1.083809794512E+00 3.380340054866E+01 5.885686565734E+01 4.011004498454E-01 -2.169542377926E+01 2.768362465967E+03
 1.969896261996E+01 1.565791367342E+01 -8.299588699635E+01 1.883912075526E-01 2.459168653032E+00 -7.488324480254E+00 -2.297637504346E+01 1.703934174142E+01 -8.298982663801E+01 -9.110885898130E+00 4.777120225745E+01 -8.733473424185E+01 -7.292998308849E-01 -1.111771702084E+00 -6.979928497482E+00 -2.660491061027E+00 -1.337867612980E+00 6.452844682214E+00 1.050626575162E+01 -8.369788428569E+01 2.004232498061E+02
 1.739825495739E-02 -1.512835562235E-01 -1.761198191818E+00 -1.220267755064E+03 -4.192156106822E+02 -5.179209151363E-01 -4.868138031579E-02 3.444930351291E-01 1.032051342700E+00 -1.209010531703E+03 4.326475866388E+02 -6.065774255601E+01 5.883975716475E-02 3.137504258505E-03 -4.462496023848E-01 3.637754542587E+01 -2.516593295182E-01 1.276742127172E+00 3.994359937452E+01 -2.586924652685E-01 3.296370901642E+00 2.791229419666E+03
 5.562292133422E-01 -1.028489758339E+00 1.774186698068E+00 -4.227566791336E+02 -6.991551717138E+02 4.056802129162E+01 2.858100733774E-01 1.094332315445E+00 -4.674278533308E-01 4.359779357904E+02 -7.264108792286E+02 5.408239517751E+01 1.968305951283E+00 4.586226235310E-01 2.394450463422E-01 -6.988011413907E+01 -2.105108085011E-01 -2.492628229212E+00 6.654905287355E+01 -5.469617322636E-01 1.429212758671E+00 7.287198049189E+00 2.775111603897E+03
 2.311299748770E+00 -1.098466786966E+00 -8.332277897305E+00 2.967640441699E+00 4.416561381204E+01 -8.620143318416E+01 -6.024814428127E-01 7.742118552915E-01 4.382552096927E+00 -6.596160902939E+01 5.287029852130E+01 -8.618374743377E+01 6.919975914126E-01 6.889582765599E-01 2.830629438891E+00 6.845225472178E+00 1.496924497761E-01 1.012363412193E+01 -9.442838879500E-01 2.198742529336E+00 5.826933775994E+00 7.282034490297E+01 -2.003073864803E+02 2.126232485372E+02
 1.778497345822E-01 2.968528682252E-01 4.252282238102E-01 6.855972463033E-01 -4.341276674472E-01 5.014812943116E-01 -1.247869519698E+03 -4.525214693883E+02 -1.997227536817E+01 -4.083771814723E-03 8.551825189156E-01 5.183770763107E-01 -5.873189942257E+02 2.323163729300E+01 -1.592799897093E+01 -1.018077704322E+00 6.404401042441E-02 -6.182844441616E-01 -2.192016003969E+01 -3.798021819830E+01 -3.661972829852E-01 1.565520594104E-02 -5.947969465379E-01 -3.879816153217E-02 2.619776975875E+03
 4.864252600645E-01 -8.178207394820E-01 -8.855729758376E-01 -1.779691816937E-01 1.468068435677E-04 -4.026713532645E-01 -4.674674253502E+02 -7.793124006599E+02 -2.384037094915E+00 1.120659015930E+00 5.076614524315E-02 -2.768650703143E+00 -1.042478876414E+01 -1.792305908330E+03 4.375570721718E+01 -2.779225901342E+00 -4.428505744497E-01 8.461535962875E-01 3.468936454020E+01 6.117198386658E+01 1.528350097590E+00 -1.984643928958E-01 -1.180317907249E+00 -4.691523325393E-01 1.967217828498E+02 3.008934276095E+03
 -4.225105588382E-01 -7.444871772465E-01 4.739472356430E+00 1.613301879478E-01 4.451909213947E-02 -1.024032121319E+00 -1.674010156018E+01 -2.001028756847E+00 -7.955772793705E+01 8.231188321213E-01 8.887926181702E-01 -8.437725728636E+00 -1.568312166156E+01 4.207119402143E+01 -7.629820212909E+01 -1.058363960315E+00 2.595503280007E-01 7.366930460985E-01 -2.173498158439E+00 -4.949475991466E-01 8.246092692881E+00 -7.872143576729E-01 -1.503100557404E-01 7.386039390412E-01 5.935207886847E+01 -5.804592264862E+01 1.614578301847E+02
 5.272043921860E-01 1.608285893297E-03 -8.479277516097E-01 -8.470470395937E-02 -3.678356023800E-01 -5.145374440544E-01 -1.226120516668E-01 9.210103356732E-01 2.000200876625E-01 -1.235971744025E+03 -4.394187287441E+02 -1.429109370156E+01 -1.219411741686E+03 4.305042010081E+02 -4.595125728017E+01 -8.951321858827E-01 5.067388610641E-03 1.317743981729E+00 3.878707357170E+01 -6.075535470405E-02 1.190396582772E+00 -2.023938114087E+01 -3.525341777370E+01 8.463502067235E-01 4.973816545558E+01 -2.032151673360E+00 2.332658716117E+00 2.825088785026E+03
 3.232865799432E-02 -7.161792299556E-01 -5.842053673096E-01 -7.705233280699E-01 3.230650329098E-02 6.350719217293E-03 6.716473264809E-01 6.144024259858E-01 3.625595709394E-01 -4.390474389006E+02 -7.323832796690E+02 1.735184084942E+01 4.383520366723E+02 -7.961729809758E+02 3.928580700583E+01 -1.939525489591E+00 -5.431651443970E-01 1.236431826875E+00 -6.858124809264E+01 -2.553797545937E-01 -2.690359698279E+00 3.391700910102E+01 5.933874697129E+01 -3.208708294284E-01 8.128440283334E+01 -3.384187705936E-01 2.434767815595E+00 -7.193250314069E+00 2.889086278458E+03
 1.371623054890E-02 7.297659288136E-02 3.284950398198E+00 -3.724308611232E-01 7.564607785060E-01 5.837515507610E+00 9.290381674862E-01 -1.790562524510E+00 -9.817411432197E+00 -6.719093188537E+00 2.077893544402E+01 -8.965926254598E+01 -4.990156964314E+01 3.865741218876E+01 -7.928308967348E+01 -7.169983344667E-01 -6.620360684476E-01 -1.533176199658E+00 1.873757083574E+00 3.550592504784E-01 1.437038268861E+01 -3.609009094278E+00 -6.217842971877E+00 6.948280617347E+00 -4.424260374841E-01 1.967831675087E+00 9.586585169167E+00 6.989595058975E+01 -1.279815720444E+02 2.008799425171E+02
 4.687919442367E+00 -6.499173458986E+00 9.839533069859E-01 -5.811276776691E+00 8.936280590549E-01 2.185152468867E+00 2.203392689341E+00 7.427978875916E+00 3.425855456564E+00 4.547376456473E+00 3.895050196901E+00 -6.116412319333E+00 7.629904971640E+00 1.429609771983E-02 -2.302871727888E-01 -2.003112188373E+01 -1.496001012059E-01 -2.326816624741E+00 -4.024378314799E+00 -5.173972574593E-01 -6.611327551663E-01 -2.961819904890E+00 -9.829888111935E+00 1.181242750584E+00 -2.910595420662E+00 -6.155452828353E+00 -1.365485632328E+00 -3.482690688722E+00 -5.464138260878E+00 -8.725486041254E-01 3.183388195458E+03
 -4.610656410554E+00 6.328177178883E+00 -5.812441541776E-01 -3.101457202366E+00 -1.829432689824E+01 -9.808848299769E-02 -6.006388464907E+00 -1.936445585331E+00 -1.862069112770E+00 -2.021200496044E+00 6.649201618232E-01 4.906976436786E+00 8.889458013339E+01 2.558303706586E+01 4.004513576127E+00 4.490528879166E+01 2.002495322983E+01 -1.625875821528E+00 -3.816762471122E+00 -7.071471004490E+00 -3.705276301809E-01 1.435268058105E+01 8.266584557849E+00 -3.165964405489E+00 -2.377648700125E-01 9.726162312645E-01 1.013814554840E+00 -1.584451543397E+01 1.889898464366E+01 -1.823090204866E+00 2.168135178210E+01 1.600795629888E+03
 1.429555509323E+00 -4.566948032599E+00 -7.657323081274E-01 5.581427682721E+00 -6.480433333148E+00 1.106740912137E+01 5.775632047652E+00 9.312781206922E+00 4.690167072418E+00 -1.654844805616E-01 1.360483086338E+01 -1.425916476410E+01 -6.109811608953E+01 -1.480730073316E+01 -1.247973360208E-01 -5.218185946998E+01 -1.662102650352E+01 -7.458273919451E-01 -5.568376158916E+00 -3.398026416987E+00 2.021497841062E+00 -7.349355259645E+00 -3.002521508946E+01 1.123593002575E+00 -3.121071098938E+00 -1.275775530844E+01 -1.552514163285E+00 5.176391232980E+00 -2.547793314698E+01 8.347583020407E-01 -1.911415146895E+01 -7.302112918157E+02 1.491959576216E+03
 9.128857828537E-01 -6.474797820707E-01 1.298033089106E+00 5.785744819065E-01 2.904900142642E-01 2.182671583403E+00 1.337121920631E+00 2.126515674733E+00 1.218855672752E+00 1.295048091024E+00 4.261584326672E-01 -1.228996462170E+00 1.176014907321E+01 6.169622512994E+00 -4.209910550181E-01 -5.919048138020E+00 -9.024398740046E-01 7.936356601047E-01 -8.810772252151E-01 -4.437873717479E-01 -7.104978096623E-01 -6.464120692330E-01 -2.511190839937E+00 1.366454172538E+00 -2.376957333800E+00 -3.277233254059E+00 -1.577189943378E-01 -1.409796297738E+00 -5.664603595534E-01 -8.537916809478E-01 3.055551983549E+01 1.374013814545E+02 -9.893731496045E+01 2.779794543992E+03
 9.633235653189E-02 -4.692778879662E-01 1.426421424183E+00 -7.524102834285E-01 7.269288492470E-01 -1.333635166929E+00 -4.554603719233E-01 5.460829006592E-01 -2.702610510677E-01 6.127884203240E-01 -5.577635022642E-02 1.892402698738E+00 -3.790989745031E+00 -2.039720278956E+00 -2.573063660696E+00 2.011937889125E-01 5.120333757176E-02 5.625247449862E-01 -8.976912662926E-02 1.166251123602E-01 -3.627919874560E+00 -4.790542334261E-01 1.082167039604E-01 2.163013902040E+00 1.044243479581E+00 2.802628274477E-01 7.078551913520E-01 5.875439655745E-01 -1.615964376590E-01 -3.171672694742E+00 -8.305104792348E+00 3.014211497915E+01 -1.406598252637E+01 3.220171101771E+02 2.709447380006E+03
 4.522904310905E-01 -1.702484468060E+00 2.410436959793E+00 -3.130135586832E-01 1.306102673038E+00 -4.315591030245E+00 1.195710838678E+00 -1.341116190574E+00 -3.434611169894E+00 -8.337728692027E-01 -1.824959908235E+00 8.173946896745E+00 6.487547467267E+00 1.991503137589E+00 -5.506579840106E+00 2.635741909456E-01 5.703795926570E-02 1.084413769526E+00 1.309751558485E-01 7.644224778100E-01 -7.256951157628E+00 8.440592137456E-03 9.820675227896E-01 3.638200790493E+00 -2.159348256070E+00 -2.975592411590E-01 3.022673751977E+00 -1.010642351095E+00 2.305725611980E+00 -7.028143690556E+00 5.847227308978E+00 2.127512027588E+01 1.395379914497E+00 8.960789817219E+01 -5.903545254686E+02 3.362069990725E+02
 -2.048042463979E+01 -3.734908960052E+01 1.623493636272E+00 3.342590701544E+01 8.499646746679E-01 -5.630305660344E+00 -2.131949194823E+00 -2.782782596213E+00 -2.971489240236E+00 -1.100214068286E+00 -6.569522710537E-01 3.021674520479E+00 -2.499603626832E+01 -1.519827159416E+01 2.251195285612E-01 -1.249860970482E+03 -4.312913994646E+02 1.063509427673E+02 3.788389457585E-01 1.341380619883E+00 1.825408624410E+00 -1.494572670378E-01 1.703052116239E+00 -1.704899108636E+00 4.315025460583E+00 5.783709066856E+00 8.377803273597E-01 2.002806047855E+00 7.647346787053E-02 1.483619578476E+00 -3.353811111335E+00 -3.226666635806E+01 2.470387144144E+01 1.179709964568E+01 -5.168147479107E+00 1.096646555793E+01 2.737432619439E+03
 3.573464953791E+01 6.033075195193E+01 -6.639316127980E+00 -6.862014944726E+01 1.744111767681E+00 5.381121925942E+00 -8.036841716764E-02 1.010596032366E+00 9.318441842657E-01 3.084386509766E-01 1.137032743524E+00 -1.955003899700E+00 3.888766497945E+00 1.861068125127E+00 -2.491951909939E-01 -4.326781224876E+02 -7.096995907910E+02 6.990751662751E+01 2.787397786499E-01 -3.246146081649E-01 -5.464348122501E-01 -1.626153208402E-01 -1.442744321301E+00 6.885404251900E-01 -2.626344738111E-01 -9.861439270847E-01 -9.459918240380E-01 -1.999584458902E-01 -8.920927452899E-01 -5.082230579528E-01 -4.498704034398E+01 6.830361918913E+01 3.137117950593E+01 -6.979378551981E-01 -6.313035158289E-01 -3.491564373913E+00 3.782034045069E+00 2.800716605668E+03
 -6.273724544344E-01 1.064406718932E+00 1.067679737591E+01 1.312205494086E+01 -7.084600409532E-01 1.057797861368E+01 6.999008154142E-01 3.574215455980E-01 -6.386237501607E-03 1.217756439329E+00 1.472379536348E+00 -2.764586228972E-01 1.252670092891E+00 -9.638072648169E-01 3.416630908970E-01 8.315789632886E+01 6.078054535817E+01 -9.186918728565E+01 -1.771188551450E-01 -1.837647024029E+00 5.495918253430E+00 -2.098631407431E+00 -1.120550964598E+00 4.267729093440E+00 -1.119258768630E+00 -2.401901658896E-01 -1.908742302973E-01 -6.210682239424E-01 -5.504440063025E-01 1.618633290146E-01 -2.831156931535E+00 -1.538295512954E+01 5.710698470068E+00 -1.015548087231E+00 3.370173040861E+00 3.341901177016E+00 -1.145738371359E+02 -1.268257320712E+02 2.158329453978E+02
 4.789375537659E-01 -2.397448206236E+00 2.407701551054E-01 -2.226474548213E+01 -2.937307173342E+01 5.906592549422E+00 -3.467252200206E-01 1.580305491913E+00 6.891022087754E-01 1.490012230458E+00 9.449480143900E-01 -6.752743754382E-01 -9.180199812832E+00 -6.795712791733E+00 4.055137154410E-01 -5.550951884461E+00 -1.523439589025E+00 -5.368882041047E-01 -5.724057607589E-01 2.118405411073E-01 9.718887766999E-01 -1.801456457876E+00 -2.112878672084E+00 2.346764732082E-01 7.331923748139E-01 3.074506258997E-01 -1.348171837475E-01 -3.205916960707E-01 -2.080938398476E+00 5.769992092183E-01 2.651861293497E+01 -1.844270415843E+00 3.985531142623E+01 -2.458869549316E+01 3.238659347382E+01 -1.160178465537E+01 3.881625860684E+01 6.313991658339E+01 -2.254150886225E+01 2.771406757071E+03
 -1.403213794268E+00 1.197204860029E+00 2.534993051261E+00 3.259928113781E+01 5.493028570111E+01 -6.889792708037E+00 -2.185104576497E+00 -7.675043486083E-01 8.504832291170E-02 -4.868566087153E-01 5.820473630456E-01 1.910616577063E-01 -1.498703842726E+01 -6.623908339249E+00 -2.642903122568E-01 7.742654966611E+00 1.720157062881E+00 3.484569379402E+00 7.713534267919E-01 -1.204624592086E-01 1.207877127180E+00 3.177672853881E-01 1.261182527419E+00 5.046395057321E-01 3.951297947314E+00 2.783770303584E+00 -1.893051357850E-01 1.995601689306E+00 -8.470717425937E-01 6.789897092097E-01 1.996262028287E+01 -4.664966649333E+01 -1.948746230336E+01 -2.927739540253E+01 7.106508123779E+01 -6.129632967098E+00 -1.984339625908E+01 3.299927297214E+00 -5.263247533367E+00 -3.093469198938E+01 2.646288181936E+03
 -1.232762718567E+00 -1.620298348627E+00 -4.977297151927E+00 -3.891651346808E+00 -4.125481306505E+00 7.756747021792E+00 9.557221376990E-01 -1.817004385167E-01 -3.313980138918E+00 1.199499540518E+00 -5.462244653576E-01 -4.930212472501E-01 4.735889601277E+00 3.910635775386E-01 5.461260856665E+00 -7.290543900462E+00 -8.357919913801E+00 -1.208846917128E+01 -1.066443015170E+00 -1.033687096140E+00 1.104899969417E+01 -3.571575040487E+00 -9.943983707567E-01 -1.765122495335E+00 -2.587111429309E+00 -6.879049336709E-01 -1.817178737445E-01 -3.484241469859E+00 2.844482441419E-01 8.942287798717E+00 -1.161375390941E+01 3.301771928948E+01 2.839220942807E+01 6.175148884351E+00 -1.753819918152E+01 7.226103258366E+00 1.547345819660E+01 -1.106781876674E+01 1.378497184650E+01 6.989757458126E+01 -4.609372124155E+02 3.207722690284E+02
 -4.148037303549E+00 2.110820639837E+00 -1.382861579004E+00 -5.684809922880E+00 -1.936913261691E+00 -4.040685545888E+00 -8.942023370986E+00 -6.717007213274E+00 -3.709823472748E+00 -3.068811024548E+00 -1.016314194891E+00 5.876460888979E+00 -5.769402819052E+01 -2.841948787754E+01 -1.050731356521E-01 2.709884359064E+01 3.687157803654E+00 -6.342819385627E-01 2.283603828074E+00 5.824783405902E-01 1.615781870358E+00 3.096009611859E+00 9.270554496009E+00 -1.720204433622E+00 1.699688193260E+01 1.524234357951E+01 1.209997843601E+00 8.834150987919E+00 2.273297230937E+00 1.658565270336E+00 -1.224102561130E+03 4.293267138416E+01 1.966957902791E+00 -4.573266072398E+02 -5.098826861892E+01 -9.301723553452E+00 -8.334658162916E+01 9.979782172581E+00 1.567688266763E+00 -2.337506296389E+00 -6.367711780539E+01 3.343433314103E+01 2.540446021093E+03
 4.824541689776E-01 -1.405007927597E+00 6.843637038262E-01 -6.805993999047E-01 1.988002115916E+00 1.453638906287E+00 1.663087292301E+00 5.406825864274E-01 3.229551057901E-01 1.245890024788E-02 1.098642462112E-01 -6.193053380549E-01 -1.467369181278E+00 -1.861619971080E+00 6.565393733500E-01 -4.687312268983E+00 -2.901631156985E-01 1.280807466751E+00 2.143026415546E-01 7.972452129281E-01 1.378836591419E+00 -9.321115604474E-01 -1.742637758642E+00 -3.446950054878E-01 -2.975864304949E+00 -1.307796729981E+00 -2.954299604596E-01 -1.229270700672E+00 -1.807992684379E+00 8.404967721595E-01 3.042758309126E+02 -5.610121761219E+02 1.478752565666E+02 -6.655930908849E+01 -1.450021360282E+03 3.334144231284E+02 1.425606320815E+01 -5.011437412890E+00 3.109366975192E+00 -4.474528872410E+00 1.274905162256E+01 -1.563563500151E+00 1.813684300803E+02 2.771689549098E+03
 2.932137003621E-01 -1.279154164275E+00 -4.854080193988E-01 -1.479678927258E+00 1.446689267425E+00 -1.946001028334E+00 -6.916711524468E-01 -2.961543658145E+00 -1.942626290255E+00 -9.888997971170E-01 -2.822107502920E+00 3.049918927113E+00 2.971556457255E+00 2.430619893147E+00 2.275524816276E-01 5.873681996982E+00 9.951488406275E-01 -2.610979999003E-01 7.905406447494E-01 1.272052791710E+00 5.383898549688E-01 1.427458771832E+00 3.799887110869E+00 -7.092796610848E-01 1.813572111637E+00 2.875804186008E+00 6.143909050566E-01 1.798259302458E+00 3.564347181158E+00 2.841835959369E-01 -1.005877503928E+02 1.003038286512E+02 -2.470932347571E+02 -1.021942528542E+01 3.309280002512E+02 -1.701752149044E+02 -3.378549156066E+00 -8.693301584478E+00 6.089733965653E+00 2.970865426858E+00 1.193204663549E+00 -6.242341531925E+00 2.210403985956E+02 -6.024417521411E+02 5.324354748581E+02
 9.450933527184E-01 7.114444878135E+00 -1.658133510477E+00 1.447580863084E+01 1.094610142941E-02 -3.091211104945E-01 7.077147817006E+00 -2.509236088403E+00 -2.150573543356E-01 -2.965938293024E+00 -3.621460624148E+00 8.735633565956E-01 4.723010181679E+01 2.849338832351E+01 -3.931133576280E-02 -2.069519839472E+01 3.604500531703E+01 -3.271019122347E+00 1.967901631987E+00 4.727867659326E-01 -2.131753259165E+00 1.916238369715E+00 3.588240654509E+00 -6.545252681671E-02 -1.318778810947E+01 -7.422346102383E+00 2.489395974016E-01 -3.747498652365E+00 4.634004506651E+00 -1.076299047534E+00 -1.265100096717E+03 -1.842104980230E+02 1.258085297005E+02 -3.063844701739E+01 1.342364444155E+01 -2.362042385865E+01 -1.093849453984E+03 4.391290928146E+02 3.057267738230E+01 -4.483755224697E+02 4.627368683741E+01 -4.618501936730E+00 1.709952359963E+02 -4.931326346754E+01 7.058027273118E+00 2.536050722827E+03
 2.500693342203E+00 -2.070908512523E+00 1.445521049285E+00 7.027644634323E-03 3.444203004498E-01 2.519668244632E+00 2.911123859630E+00 5.827998638829E+00 2.756292320601E+00 3.821049131993E+00 1.798579208252E+00 -3.088954089250E+00 6.244315363213E+00 6.805719099327E-01 -4.089895820729E-01 -5.016512332459E+01 5.533567083890E+01 -3.192483369768E+00 -2.436062871374E+00 -3.739578712382E-01 -9.980777329455E-01 -3.689691447185E+00 -5.182214039179E+00 1.490287755159E+00 -5.152732167174E+00 -6.015502599967E+00 -5.445793930949E-01 -3.705655407380E+00 -4.231048793284E+00 -1.165924474331E+00 -3.209326494035E+02 -4.771331502485E+02 1.194155996659E+02 -2.199229601070E+01 -3.043465419873E+00 -4.460755096902E+00 4.627942640162E+02 -7.443911576118E+02 5.584617446878E+01 -3.526431300032E+00 -1.415404327092E+03 2.514102645325E+02 1.216570568638E+02 3.148364579737E+01 -1.026073617912E+01 -1.161931114741E+02 2.679785786978E+03
 3.807887054307E+00 -9.236525587572E-02 4.959963164580E+00 -3.581646198095E+00 -1.994444319563E+00 -1.190830400343E+01 -3.961158443225E-01 -2.840148958472E+00 -1.364985530468E+00 -9.020282766576E-01 -3.606197208657E+00 3.187373716044E+00 2.209074233139E+00 3.169222399853E+00 -9.382762014576E-01 1.112241530432E+01 -1.164458829935E+00 9.844513487852E+00 3.622165156825E-01 2.092553811317E+00 -9.148867287072E-01 2.519098593593E+00 5.217609631937E+00 -1.740324743981E-01 3.121194254371E+00 3.473169043570E+00 6.665135122382E-01 3.472730687040E+00 4.062135968366E+00 -7.628027048453E-01 1.222684383924E+02 1.031760634595E+02 -2.308700429546E+02 8.607051775658E+00 3.566370117596E+00 -5.037862638460E+00 -8.566737127243E+00 4.549514477814E+01 -1.108123669208E+02 2.504536618082E+00 2.662715741369E+02 -1.499600318105E+02 -4.161253070068E+01 -1.979912092898E+01 3.210357397555E+01 -2.192758684255E+02 -5.141558870874E+02 4.989602978415E+02
 -8.018080118447E-01 1.079449094919E+00 -7.667656750415E-01 3.598438290286E-01 -1.828340132265E+00 -1.566601251940E+00 -7.617836518584E-01 -1.255224612618E+00 -5.329270416582E-01 -1.210087754773E+00 -9.432427376114E-02 4.841202553524E-01 -3.001537964118E+00 -4.187681054226E-01 -1.229374520277E-03 5.089608657713E+00 2.170886366605E+00 -7.442219965272E-01 4.750658586568E-01 -2.464447163885E-02 -2.663117085455E-01 1.247614349887E+00 1.451649281372E+00 -4.950819118865E-01 1.315047214063E+00 1.203216214489E+00 1.249659497194E-01 9.085802064739E-01 6.544776153045E-01 6.356070522498E-03 9.470270148005E+00 -7.685162269194E+01 1.716115898991E+01 -1.519269773108E+03 -5.234686167595E+02 4.397274956359E+01 -7.896260801331E+00 1.577035597776E+00 1.976825059531E+00 -1.266046145902E+03 4.127853490708E+02 -1.090590067008E+02 1.869153319176E+01 6.374965425092E+00 -8.736815675106E+00 5.270834766650E+01 2.092177151636E+01 2.341374237746E+00 3.078847821185E+03
 -5.758496798790E-02 -4.250648687075E-01 -3.253245945524E-01 -1.022491620226E+00 6.891271689550E-02 2.051006158121E-01 -6.005120566085E-01 1.044385788037E+00 3.972957952618E-02 7.270630042959E-01 7.424270794893E-01 -3.678586350883E-01 -3.090297662879E+00 -1.864198615594E+00 -5.168048124515E-01 -3.702306339000E-01 6.129133003065E-02 -6.598526266283E-01 -4.566654668567E-01 -3.178352744966E-01 -8.729335899952E-01 -2.556674473357E-01 -8.951174538379E-01 3.954225692275E-01 1.135698630108E+00 1.959808848612E-02 -1.008243487972E-01 1.426311937263E-01 -8.462067141602E-01 -5.814898714311E-01 -9.265441727751E+00 -7.472855061653E+00 3.935453847268E+01 -5.356596644217E+02 -8.305166399523E+02 1.407934448960E+02 -7.232889844655E+00 -8.437533378102E-01 -1.418133421411E-02 4.003923839357E+02 -6.905720880754E+02 1.243936292648E+02 -9.392707333480E+01 2.240136751689E+00 -7.297971042241E+00 9.086020803767E+01 -7.430710868939E-01 -5.474969839446E-01 1.129295854682E+02 2.416666079610E+03
 -2.538603939208E-02 1.087693233082E-01 1.151285878157E+00 4.469981241840E-01 8.929126554430E-01 3.127361976500E+00 2.105794554285E-01 1.293913398449E-01 -1.018384230349E+00 -5.885403944335E-02 -1.499323799964E-01 3.387177071836E+00 1.394307588361E+00 6.209308069149E-01 -2.807075636025E+00 2.403126311936E-01 4.499419932722E-02 1.896137895785E+00 -1.147749074796E-01 -4.625114954778E-02 -4.608338182873E+00 -5.485387265416E-01 5.150738261275E-01 2.276973376785E+00 -4.260272933785E-01 -4.704031121542E-01 1.386833984883E+00 -3.289251904393E-01 6.733922381051E-01 -3.940059267060E+00 2.964574939752E+00 -2.166907183373E+00 -2.407655055696E+01 4.566217309722E+01 1.519137354322E+02 -9.447069504912E+01 1.696471457653E+00 8.553353504952E-01 4.092617980977E+00 -1.055149806568E+02 1.281437024787E+02 -1.119544606778E+02 2.515453284901E+01 3.178245026104E-01 1.347089749342E+01 -1.777399187778E+01 6.391884750669E+00 1.330308454110E+01 7.189974954691E+01 -4.822098499737E+02 2.630864331101E+02
 -7.311059757680E-01 2.064437212229E+00 2.132435869228E+00 -1.221896236037E+03 4.423560775137E+02 -9.348862455019E+01 -1.294291310119E-01 -7.046837057911E-01 1.845351937219E-01 -8.013634695165E-01 -9.752584698929E-02 -1.307184080905E+00 3.926257533854E+00 3.897763791412E+00 -3.840039016622E-01 4.537116335768E+01 2.027053389299E+00 6.097965994589E+00 6.259877345375E-01 -2.437859276214E-01 -6.870597093554E-01 -1.896562910156E+01 3.691144904744E+01 -5.652492910159E+00 -6.738513536454E-02 -2.676581893249E-01 -5.981232911474E-01 3.690215299060E-01 3.591409061207E-01 -4.686458559563E-01 1.403736495574E+01 -2.291346499789E+01 -3.770028513921E+00 2.142201114625E+00 3.051484818804E+00 -2.723650614747E+00 7.678129987698E-01 2.610242026574E+00 -3.292257551542E+00 -1.144053111796E+03 -3.934523282688E+02 3.375668091240E+01 -1.248994524007E+00 1.875967597853E+00 -1.870541290331E+00 1.769374637842E+01 1.034675090449E+01 1.054671695160E+00 -2.019497055143E+01 -2.893700997078E+01 3.871689320580E+00 2.734021741054E+03
 -2.201016878398E-01 1.653141599524E+00 -1.311754147664E+00 4.537031338643E+02 -7.375364200877E+02 9.192041235743E+01 1.494515625553E-01 4.601168462154E-01 7.460734010364E-01 -7.387635697086E-02 -4.432895140174E-02 -7.000589035487E-01 8.211132205163E+00 5.917436565033E+00 -1.044783818750E-01 6.864757751647E+01 1.713206892117E+00 2.439223882482E+00 5.016580394467E-02 -4.834337029772E-01 -2.206992733038E+00 -3.204871386915E+01 5.942813411523E+01 -7.658954807353E+00 -5.011075421981E-01 -1.512869453001E+00 -9.611028013406E-02 -2.815507595667E-02 8.312613109996E-01 -9.468048150160E-01 4.790441358869E+00 -1.830585323749E+01 9.209870840579E+00 7.786014991747E-01 3.221340643657E+00 -4.248732525842E+00 1.752732676642E+00 1.717567772812E-01 5.552425894296E+00 -3.884316288466E+02 -6.563607024915E+02 7.521228519447E+01 1.243371630161E+01 -2.489963384701E+00 -1.948940194632E+00 -8.279013521188E+01 2.094529350846E+00 -8.815962538453E-01 2.974058936568E+01 5.900734596016E+01 -8.130965701352E+00 -5.856991735483E-01 2.769642267973E+03
 8.487413007614E-01 8.891880724139E-01 5.852601881476E+00 -9.161158663250E+01 8.396312510389E+01 -9.441364877868E+01 1.158899423844E-02 2.802672834284E-01 1.123411175628E+00 4.444256144805E-01 -6.718299121549E-01 3.475243326666E+00 -1.227027304967E+00 -7.550570113391E-01 4.663637468886E-02 -6.856127917734E+00 2.596684703882E+00 8.012884987556E+00 -8.919469800030E-01 1.446219479049E-01 1.579200909627E-01 2.889154576499E+00 -2.121123643621E-01 9.821418738726E+00 -9.170313230680E-02 -6.417737430525E-02 -6.531654372398E-01 5.872853146571E-02 -3.218869564701E-01 -2.277033639825E-01 -8.974454096107E-01 7.495819986221E+00 -5.033276645968E+00 9.669260930492E-01 1.038264686643E+00 7.495756910400E+00 2.907054543472E+00 1.770279480310E+00 -9.084545234379E+00 2.861516858600E+01 8.421182485463E+01 -9.612751063365E+01 -2.600298921198E+00 3.332873910554E+00 -5.803174744108E-01 1.821923118263E+01 -9.805702551186E-01 8.140114791008E+00 -7.632064354514E+00 -1.009074343684E+01 1.096971561765E+01 6.111817082387E+01 -3.117709401543E+02 2.276663569404E+02