#BIOSYM hessian 1
@Type: Hessian Update
@Units
 distance: 	A
 energy: 	Kcal/Mol
#header
@natom 68

#label
C1      C2      C3      C4      C5      C6      C7      C8      C9      C10     C11     C12     C13     C14     C15     C16     C17     C18     C19     C20     C21     C22     C23     C24     C25     C26     C27     C28     C29     C30     C31     C32     C33     C34     C35     C36     C37     C38     C39     C40     C41     C42     C43     C44     C45     C46     C47     C48     H49     H50     H51     H52     H53     H54     H55     H56     H57     H58     H59     H60     H61     H62     H63     H64     O65     H66     O67     H68

#element
C  C  C  C  C  C  C  C  C  C  C  C  C  C  C  C  C  C  C  C  C  C  C  C  C  C  C  C  C  C  C  C  C  C  C  C  C  C  C  C  C  C  C  C  C  C  C  C  H  H  H  H  H  H  H  H  H  H  H  H  H  H  H  H  O  H  O  H 

#matrix
204
 2.800990061957E+03
 -2.098954898413E+01 2.812880882215E+03
 -2.326347896777E+00 -1.495359517932E+01 1.928123318865E+02
 3.510055753974E+01 6.489139665570E+01 -3.165554096549E-01 2.781397654820E+03
 1.867261828050E+00 -9.024806554667E-01 7.569451355659E-02 -3.860999875798E+01 2.728166177461E+03
 6.380333850543E-01 3.175352517879E-01 8.595908832862E+00 9.767451031387E-01 -1.704661501528E+01 1.889028977859E+02
 -1.939477541285E+01 3.460845309002E+01 -1.651919163481E-01 -1.936168519010E-01 -5.041130977295E-02 4.346230685597E-01 2.827821995783E+03
 -3.274083158845E+01 5.971628855859E+01 -5.578559731380E-01 2.895170315586E-01 -3.866985571273E-01 -9.756999435939E-02 3.409516339269E+01 2.754653396866E+03
 8.475852881245E-02 -3.079372763635E-01 9.090962109714E+00 7.527546666142E-02 -4.885961680442E-02 2.645477647405E-01 -6.665525821846E-01 -8.523511979617E+00 1.896421673142E+02
 3.657040477082E+01 -6.764598376822E+01 7.292957391297E-01 -2.318208676656E+01 3.663733512474E+01 3.275696488756E-01 3.896297538421E+01 6.968823567485E+01 -3.143977493743E-01 2.792938214550E+03
 -2.449646708227E+00 -1.356000665248E-01 5.720745277274E-03 -3.569461669139E+01 6.076696637223E+01 -5.309922238745E-01 -4.560189790772E-01 -1.431454303978E-01 5.575907925697E-02 1.128727531056E+01 2.813889245410E+03
 1.149181982604E-01 4.325906105633E-01 8.682090199090E+00 -8.274159794192E-02 -5.232512748500E-01 8.513834696136E+00 1.901428860524E-01 1.324456474475E-01 9.762882698421E+00 4.721266369144E-01 -1.339114938135E+01 1.945541663567E+02
 3.300312808515E+00 3.817941645606E-01 -3.497605581620E-01 5.418443306942E+00 -2.831864295995E+00 -4.002986774566E-01 5.023887216688E+01 -8.464320521409E+01 3.812594496374E-01 -1.856525606309E+01 3.951111766579E+01 -2.117974501591E-01 3.171126586501E+03
 2.762065767361E-01 6.681047420129E-03 7.786089969185E-02 3.326071463496E-01 -2.885273781319E-01 -3.250202790734E-01 -1.180820481944E+00 1.243167787516E+00 -2.063125651364E-01 -3.383301865623E+01 5.955549052553E+01 -4.588764374939E-01 1.710982964415E+02 3.369110598282E+03
 -9.475360991991E-02 -3.768218099792E-03 5.106410675828E-02 -2.086085730142E-01 6.431569259116E-02 8.281773176482E-02 1.286663038058E-01 1.660333706802E-01 1.107976713975E+01 -4.164936864293E-02 -3.297354810260E-01 1.000809984421E+01 1.935773711961E+00 -1.370582977801E+01 1.945980290991E+02
 -1.226548942774E+03 4.537871790358E+02 -1.137391856942E+00 -4.514777312764E+02 -1.749681373337E+01 -1.380172555881E+00 7.245910380408E-02 -1.681053685025E-01 -4.671531854822E-03 2.524992886438E+00 2.068243745089E+00 2.875593674813E-01 -3.872195302997E+00 -1.422479044780E-01 1.662504594294E-01 2.817163540548E+03
 4.451734378925E+02 -7.455160882998E+02 3.527521544863E+00 -1.373558407798E+01 -1.394429452333E+03 8.073966247256E+00 1.483650978651E-01 2.504887196480E-01 1.340416954904E-01 -1.866836801360E+00 -9.053366676235E-01 -4.489472716906E-01 1.902531077600E+00 2.556319224958E-01 -6.168444109143E-02 -2.633267636846E+00 2.741936615844E+03
 -1.550500588214E+00 3.629195971966E+00 -8.319614822136E+01 3.170792697362E-01 9.000981717973E+00 -7.987542581865E+01 -7.543358534498E-02 7.918229634244E-02 4.389530054752E+00 -7.905531775081E-01 2.994532899120E-01 -8.739948956652E+00 3.898331500727E-01 1.507109200408E-01 -6.189079427624E-02 -4.041835964876E+00 -1.622581603809E+01 1.912016289726E+02
 -1.210937163409E+03 -4.138379074707E+02 2.984480645648E+00 1.845344875429E+00 -4.418982768043E-01 -7.564187277203E-01 -1.240240359492E+03 4.416770819413E+02 -7.361398556444E-01 -4.705722323555E+02 -8.973779781905E+00 -2.953052190474E-01 -1.107964743857E+00 2.828923954138E-01 9.229592938387E-02 -2.102666687234E+01 -3.232567094952E+01 9.191086899274E-01 2.808546312351E+03
 -4.110366363381E+02 -6.983674767966E+02 3.858279311087E+00 4.446738384808E+00 -1.445623987733E+00 -2.806858599015E-01 4.513960883172E+02 -7.382263521022E+02 2.286888211373E+00 -1.167740020784E+01 -1.460727867484E+03 6.598554141609E+00 -2.086176496896E+00 -3.380614366598E-01 -1.651363178744E-01 3.213588290543E+01 6.049941381890E+01 -1.499410625565E-01 -1.830764452336E+01 2.776763410334E+03
 3.785099606990E+00 2.935706714838E+00 -8.144246505238E+01 -3.211187447868E-02 1.153332648474E-01 -8.621763400672E+00 -1.315221857907E+00 2.609095546254E+00 -8.325324353056E+01 4.475620497228E-01 6.506240264244E+00 -8.248085191551E+01 1.375644500181E-01 3.122013240914E-01 -1.039677536682E+01 -4.543358021279E-02 -1.096130304409E-01 8.235555297465E+00 -2.852869552930E+00 -1.223802689938E+01 1.926466156375E+02
 2.780250612086E+00 7.151496312433E-01 6.701929114510E-02 -1.192852202687E+03 -4.158730595334E+02 1.897952574026E+00 4.601309229089E-01 -3.695079771347E-01 -3.168030912388E-02 -1.196116293944E+03 4.415429720584E+02 -2.145012267641E+00 -4.712357902802E+00 -5.960178281384E-01 1.438718171132E-01 3.078215469875E+01 2.571912651639E+00 4.693630823244E-03 3.851613896819E+01 -4.643016649950E+00 2.709898636762E-01 2.742713667383E+03
 1.314631691816E-01 1.238317077433E+00 1.323578916670E-01 -4.158122237287E+02 -6.910097390420E+02 3.928767811841E+00 5.307339952650E-01 2.833967332054E-01 1.284686899965E-01 4.410121613758E+02 -7.297970347038E+02 4.027088961923E+00 -3.382633422676E-01 -4.335453849237E-01 9.286892505726E-02 -6.381477679659E+01 -1.971364585919E-02 -3.221045778955E-01 6.571494767699E+01 -2.186044153312E+00 -2.494032318681E-02 -6.928382060994E+00 2.731175374298E+03
 -3.779640220646E-01 -2.615221905092E-01 -8.863596311133E+00 3.288504372110E+00 2.689654131527E+00 -7.996829855722E+01 -9.860852929394E-02 2.587968085863E-01 4.576032980614E+00 -2.393634281958E+00 3.866127063430E+00 -8.071919000851E+01 5.779665096223E-02 1.515719068595E-01 4.532251769001E+00 8.666550828858E-02 2.696354243963E-01 8.644827531447E+00 -9.460003941383E-02 -2.541622578907E-01 8.890891290596E+00 -2.294636158303E-01 -1.533278000347E+01 1.868739847691E+02
 -3.087969236896E-01 -7.712386620966E-02 1.634856029380E-01 -6.205940500616E-01 3.901677590205E-01 -6.895197209812E-02 -1.261055814552E+03 -4.515880366847E+02 1.131063201105E+00 1.472175132267E-01 -6.160585390331E-01 -1.330892575971E-01 -6.056063082569E+02 1.856990095137E+00 -5.818252498446E-01 4.479252804400E-01 -2.631820357748E-01 -1.481512590753E-02 -2.146304691139E+01 -3.700938170944E+01 3.167667990943E-01 5.535982144621E-01 -3.073587045647E-01 2.443855056474E-02 2.648091069561E+03
 7.131947586656E-01 1.430979231261E-01 -5.832622046658E-02 1.316719793764E+00 -5.927025810933E-01 1.562009011629E-01 -4.668798841938E+02 -7.791163328476E+02 2.385056958190E+00 -4.496489572334E-01 1.863136879797E-01 5.403671855018E-02 -2.090501242690E+01 -1.801569201653E+03 7.457220777594E+00 -9.968765984971E-01 3.234782574833E-01 7.141408646798E-02 3.569371439334E+01 6.116828701308E+01 -4.796872712885E-01 -7.760445772981E-01 1.342824139842E-01 -1.963201654579E-01 2.007205222628E+02 3.018392926577E+03
 -1.938172145144E-02 -3.149228700287E-03 4.737894480784E+00 1.389216842444E-01 -1.004969514129E-01 2.560655334214E-02 1.621404281965E+00 2.226158301428E+00 -7.940332935481E+01 7.038132585506E-02 1.141305866056E-01 -1.029239657231E+01 -4.375915344230E-01 7.316017763813E+00 -9.418576911159E+01 -8.185970595794E-02 1.211491304959E-01 -6.126905229354E-02 -1.903997476375E-01 -2.430219099541E-01 9.918331506074E+00 -1.842820612051E-01 2.600513221900E-02 1.184063322450E-02 8.297460145217E-01 -1.183565370569E+01 1.738571470362E+02
 8.618416545310E-01 1.845778325126E-01 -3.278999000531E-01 1.694680792338E+00 -7.689287252148E-01 1.186641421481E-01 1.236053826467E+00 -1.248206065899E-01 -5.522445614586E-02 -1.241166780212E+03 -4.372498133664E+02 1.960645229391E+00 -1.223353473399E+03 4.292609521953E+02 -2.344773987069E+00 -1.274494114066E+00 5.579153307553E-01 2.600289517190E-01 3.930888861832E+01 -1.602596144773E+00 -4.003123434173E-01 -2.192141148346E+01 -3.381506338422E+01 1.433556895900E-01 4.991731640374E+01 -1.300333831985E-01 2.121166562226E-01 2.838316600905E+03
 5.502538725740E+00 7.742853788534E-01 -8.075379446836E-01 9.902233291715E+00 -5.041522033824E+00 -6.028641702549E-01 3.480481297884E-01 -1.686976898297E+00 -1.808652791860E-01 -4.368402596387E+02 -7.352955656671E+02 3.215887661660E+00 4.288940766712E+02 -7.974255225751E+02 3.819691456039E+00 -7.113399128310E+00 3.449642744327E+00 7.054188701688E-01 -7.136364489298E+01 -3.092693367671E+00 4.720553445478E-02 2.730786113064E+01 5.946674057865E+01 -1.420924281714E-01 8.236347507902E+01 -1.721353942082E+00 -2.321661226117E-02 3.963187120770E-01 2.963061940914E+03
 1.497092731947E-01 2.563694885253E-01 4.389080285866E+00 2.651571299506E-01 -1.903628726618E-01 4.215059633162E+00 -2.438972114522E-01 -1.217144330280E-01 -1.061990419085E+01 2.190309452635E+00 3.048430965424E+00 -8.738322901759E+01 -2.705633308378E+00 3.780141095644E+00 -8.709616235916E+01 -1.873500595461E-01 -7.279378090779E-02 3.596350355469E-01 2.129738138216E-01 5.002588822282E-02 9.295963568483E+00 -5.560664401225E-01 -2.536448762052E-01 9.348053464892E+00 -1.351001348039E-01 -1.192801833433E-01 1.057114258911E+01 7.525258779402E-01 -1.451833001988E+01 2.011923899929E+02
 -1.769568495914E+00 4.923662259263E-01 -3.285844548788E-01 -2.300874125519E+00 1.711619547701E+00 -6.847011491745E-01 6.371668235203E-02 7.093379966512E-01 -2.955935344880E-01 -1.307421475125E+00 -1.456450209488E+00 5.756022918852E-02 2.370548686861E+00 6.432217833116E-01 -9.134666207880E-02 1.625437897951E+00 -2.022225047858E+00 9.781997308633E-02 5.548608290433E-01 9.952887506415E-01 -2.965554418412E-01 2.153800789161E+00 -1.505181181851E-01 6.532365669254E-02 -2.340374324318E-01 1.002015716158E-01 -2.122895866057E-02 3.205410130627E-01 3.793614591434E+00 3.509438805724E-01 2.871150371744E+03
 1.556465259102E+01 2.065193007222E+00 -1.263674176067E+00 2.687654423280E+01 -1.411069352739E+01 -8.634115845153E-01 1.738652470718E-01 -2.282984375035E+00 -3.937426559396E-01 1.086367493220E+01 1.296645343261E+01 -2.231441712366E-01 -1.840035580060E+01 -2.030204474336E+00 3.742252586693E-01 -1.953113309134E+01 1.027052329506E+01 1.396169326935E+00 -5.534711444286E+00 -1.174055186091E+01 3.972436532644E-01 -2.317281182427E+01 -1.744394366795E+00 -6.848330985480E-03 1.920180984485E+00 -3.603011145347E+00 -2.513833776840E-01 -4.605828109872E+00 -3.180036267240E+01 -9.533772203805E-01 -1.916464467344E+01 2.597565682710E+03
 1.648690860235E+00 -2.998149306575E+00 2.569353882928E+00 -6.935760413809E-02 1.203956518800E+00 4.263700975147E+00 5.897588189682E-01 -1.353891926589E+00 2.489020601485E+00 2.404853747314E+00 7.073291956487E-01 -7.627213655453E-01 -1.966209881904E+00 -8.848766701719E-01 4.511274010707E-01 7.677893481488E-01 1.535187875889E+00 -1.195021119033E+00 -8.986552750474E-01 2.039020580765E-01 2.129697604325E+00 1.308944983274E-01 6.788534689697E-01 -4.299194945908E-01 2.820614051510E-01 3.295604966280E-01 4.798384863787E-01 -1.195352180182E+00 -3.995506590663E+00 -2.612898067516E+00 -5.808744512354E+00 -2.909280028309E+01 2.312770152817E+02
 -7.326740801115E+00 -6.427327873866E-01 1.147774377334E+00 -1.219309671873E+01 6.606019668129E+00 1.340595153705E+00 -1.910591933989E-02 1.460395110088E+00 7.356251760238E-01 -5.002837569207E+00 -6.205077342685E+00 -8.452827457153E-02 9.147546241604E+00 1.417809869491E+00 -1.632510832930E-01 8.271848562236E+00 -5.287649187772E+00 -1.746944418601E+00 2.244070801501E+00 5.442920016156E+00 2.818288561960E-01 1.050410786240E+01 1.291988981583E+00 -1.062212448759E-01 -9.531660251601E-01 1.349538362624E+00 2.521750226661E-01 1.925352288401E+00 1.521864386069E+01 -1.017111057703E-01 3.764710265934E+01 1.261948725033E+02 8.725240157084E+00 2.699857624996E+03
 -1.534799709916E+01 -1.866698146872E+00 1.719610202176E+00 -2.658288848657E+01 1.401664060334E+01 1.814675842841E+00 -2.756485491759E-01 2.385371530720E+00 8.982450321826E-01 -1.107851678697E+01 -1.292026198376E+01 1.965092602246E-02 1.843682515657E+01 2.254871652427E+00 -4.471457663303E-01 1.892319270915E+01 -9.973752846910E+00 -2.522224796690E+00 5.503872364906E+00 1.152887588764E+01 1.740262532151E-02 2.294645148314E+01 1.856405202723E+00 1.662307133265E-01 -1.918538402752E+00 3.430980772904E+00 4.059213174226E-01 4.652359008936E+00 3.137671689173E+01 4.710131947768E-01 -1.336124871524E+01 8.762561114813E+01 9.588170170218E+00 2.070568203390E+02 2.852825222379E+03
 6.605064429901E-01 2.026965430683E-01 3.777033250838E-01 1.408669540512E+00 -6.543311504067E-01 6.690168103192E-01 1.513516410247E-01 -4.171617307689E-02 3.837482267804E-01 8.734539917435E-01 2.941461811445E-01 -1.112313537590E-01 -5.249267706835E-01 -7.948074240120E-02 9.153028534007E-02 -1.399927090272E+00 -3.769846030346E-01 -7.961360252537E-01 -6.173984330904E-01 -4.176474477649E-01 3.286940622009E-01 -8.457352137274E-01 5.150685667995E-01 -8.935335842653E-02 1.040698353485E-01 -1.366831292707E-01 4.628585486994E-02 -5.045809798732E-01 -1.037082440006E+00 -4.090482104866E-01 -4.973553342342E+00 2.112448832943E+00 1.839430706487E+01 -6.037268220490E+00 -3.052080179526E+01 1.455876534433E+02
 -2.035398715371E+01 -3.423269905969E+01 -3.896094231606E-02 3.665395141013E+01 -2.155908220622E-01 5.334326414108E-01 -1.395024852743E-01 -1.741871294128E-01 -5.645537333420E-02 -1.137733170317E-01 1.224384789104E-01 -1.231051203080E-01 -1.341979722903E-01 -1.601087382899E-01 4.638647753282E-03 -1.251376996933E+03 -4.322781095402E+02 4.736828987923E+00 8.983408665041E-02 5.321673832742E-02 -1.963874787029E-01 3.621279374147E-01 -3.244177093918E-01 3.014696672237E-01 5.741940768235E-02 9.833589443728E-02 -4.014537388870E-02 9.489150855101E-03 -2.279743743150E-01 -5.016050412283E-02 -1.809572917666E+01 3.416600755495E+01 -2.242203038661E+00 7.509881606723E-01 1.040719760476E+00 1.450353561876E-01 2.769769217381E+03
 3.353984172650E+01 6.087741881346E+01 -2.271208621535E-01 -7.198798479247E+01 3.296319466325E+00 1.036802105865E+00 -2.936380976120E-01 1.687509460645E-01 2.958594260106E-02 -2.109013142401E+00 -2.438849832927E+00 1.307669803049E-01 3.136735936170E+00 2.157127064278E-01 -1.392205295986E-01 -4.345965594130E+02 -7.201872151222E+02 3.566981715632E+00 1.256938352851E+00 2.110249350663E+00 -9.040865417536E-02 4.265729713946E+00 6.089482941724E-01 3.770791830664E-01 -3.189489732178E-01 7.837583905906E-01 5.368355752145E-03 9.851427412658E-01 5.493089922437E+00 3.215726353454E-01 -3.324416273911E+01 7.139503462270E+01 -3.303823661430E+00 -6.456277162543E+00 -1.488803429870E+01 1.850544260278E+00 2.480721794470E+01 2.779957901452E+03
 -3.197885703875E-01 -1.403437968923E+00 9.569472072022E+00 3.239313001759E-01 2.752018248175E-01 8.746141722346E+00 -1.254407501924E-01 -4.560875998994E-01 -1.841854507154E-01 -5.266712683917E-01 5.291065339872E-01 4.154272603641E-02 -4.356844965571E-01 -1.276148681676E-01 -2.794045620400E-02 5.501751770566E+00 6.391235922522E+00 -8.232353180325E+01 7.231304082283E-01 1.186847103057E-01 4.505491210398E+00 -3.499933550860E-01 -6.784281329905E-01 4.382215681430E+00 9.074937734928E-03 1.563692469554E-01 -3.307832229675E-02 1.619275559701E-01 -5.457488780624E-01 1.557867766018E-01 -3.962365867428E-01 -2.891185248380E+00 5.067652793718E+00 4.235917059326E-01 1.205151774257E+00 -4.914471698478E-01 -3.397125840463E+00 -1.897678261750E+01 1.903943512245E+02
 -1.146625672906E+01 -1.433677048552E+00 1.139279271036E+00 -3.849329456568E+01 -2.120296670379E+01 5.140197765274E-01 -1.652789550837E-01 1.523836614449E+00 5.340182369101E-01 -8.552319977360E+00 -9.467405034854E+00 2.599449070220E-02 1.348386549759E+01 1.495869521876E+00 -4.144008830982E-01 1.390926148488E+01 -6.845114409220E+00 -1.186181660500E+00 4.261396639958E+00 8.722409144916E+00 -3.767540048852E-02 1.679956746288E+01 1.249548765854E+00 -1.239494584201E-01 -1.537638386113E+00 2.695118003746E+00 3.629510425301E-01 3.793958364991E+00 2.352588120894E+01 5.282587482637E-01 3.165175573744E+01 -3.080130303736E+00 1.051936605859E+01 -5.457407567058E+01 -2.521749701604E+01 5.966138752620E+00 3.958579276753E+01 5.433034438312E+01 6.593241289768E-01 2.766180055526E+03
 7.878445541837E+00 1.397079558088E+00 -7.036854188572E-01 4.729589196848E+01 4.895984697662E+01 -1.283675691714E+00 1.888123773881E-01 -5.720383202473E-01 -3.109949665319E-01 6.045309391024E+00 6.619999225256E+00 -1.770870034945E-01 -8.777237546594E+00 -6.019746307771E-01 2.765217463231E-01 -9.713282858546E+00 4.384975741966E+00 8.872288963006E-01 -3.192607106024E+00 -6.160137906795E+00 1.028230631708E-01 -1.206446886925E+01 -1.138167369830E+00 -3.054992131761E-02 1.041943067316E+00 -2.183500439399E+00 -2.459067130203E-01 -2.891644264265E+00 -1.576062880388E+01 -4.436551637693E-01 4.564574535047E+00 -4.131299640794E+01 -2.673655141539E+00 -2.279388455122E+01 1.169858678334E+02 -2.839209616771E+00 1.540743208241E-01 8.248966003778E+00 1.666299657916E-01 -4.482214908806E+01 2.723661632959E+03
 4.347502366865E-01 3.947340399792E-01 -5.624402218098E-01 3.047356114552E-01 -2.119280947474E+00 6.905679379270E+00 3.353051906273E-01 -3.216776303616E-01 -5.534756363213E-01 -1.002187211558E+00 -1.252115260174E+00 1.765997146586E-01 2.854622594498E-01 -4.711618727483E-01 -1.227668852490E-01 -1.418626187258E+00 -8.845329285893E-01 -7.492026088835E+00 1.184557715815E-01 7.667109377519E-01 -4.767878164220E-01 1.621748535747E+00 5.812505242322E-01 4.335893270981E+00 -3.855414687421E-01 6.526406891585E-01 -9.077291333301E-02 1.075818079315E+00 1.896070203132E+00 5.947558173988E-01 4.392358007956E-01 2.583878440073E+00 1.404327528166E+00 -3.878709353781E+00 -5.028438996966E+00 1.176510674684E+01 3.348733401242E-01 1.794942670846E+00 9.160724095236E+00 7.842296182854E-01 -2.157425798528E+01 1.888635102592E+02
 1.093447962827E+01 1.835477653931E-01 -6.985439718891E-01 1.898890249473E+01 -1.270216035818E+01 -3.140471078109E-01 -8.588402709596E-01 -3.573109374323E+00 -2.107385795488E-01 6.932573150833E+00 1.006597969004E+01 -1.107702436140E-01 -1.521556642158E+01 -3.134115549581E+00 2.724699732782E-01 -1.261728230368E+01 9.555080512659E+00 8.799454092909E-01 -2.840634914227E+00 -8.053052663367E+00 1.900799427063E-01 -1.629556203790E+01 -5.000509077019E-01 -1.374152347206E-01 1.368043250250E+00 -1.576743339072E+00 -2.132106482141E-01 -1.663251207284E+00 -2.441384379491E+01 -4.872973531781E-01 -1.296814406964E+03 3.879270060978E+02 -2.402550834737E+00 -4.603302410823E+02 4.950491434724E+01 7.984112228626E+00 -3.413776724737E+00 8.880019480176E+00 -1.024668619459E+00 5.303388173744E+01 -3.060376315157E+01 2.615406203424E+00 2.462173072641E+03
 1.436467749293E+01 1.061826711742E+00 -7.758155710683E-01 2.449881618581E+01 -1.374069319647E+01 -5.095215847364E-01 3.189206180217E-02 -2.313071393082E+00 -6.539711777299E-02 1.027571294959E+01 1.238500361106E+01 -2.791325903799E-01 -1.748857021127E+01 -1.990174094393E+00 4.795448739869E-01 -1.732731164425E+01 1.009305393342E+01 5.192991297756E-01 -4.988515614216E+00 -1.084617921945E+01 6.385279899196E-01 -2.156085767297E+01 -1.709752519310E+00 -3.569194055556E-01 1.779824402983E+00 -3.431096747254E+00 -1.470892544441E-01 -4.037281607266E+00 -3.030709770864E+01 -1.286277269469E+00 5.087623976234E+02 -8.342833733888E+02 1.433065594889E+01 -7.527674829835E+00 -1.563070539610E+03 1.424067128322E+01 -1.131502103479E+00 1.181412958732E+01 -1.436570584372E+00 5.912291674731E+01 -3.980478617129E+01 -8.474553152108E-01 -2.105412284818E+02 2.721167166020E+03
 -1.860439514494E+00 -1.013427254809E-01 -2.087993748376E+00 -3.228959771678E+00 1.062043074213E+00 -3.792193564447E+00 -4.707575497256E-01 -7.011254275119E-01 -2.042616307555E+00 -2.988220086196E+00 -1.025379867578E+00 7.888920719222E-01 8.438191973495E-01 -6.399786166317E-01 1.647452047929E-01 3.130484404858E+00 6.879362128891E-01 5.969274783181E+00 1.997495032428E+00 1.374660027125E+00 -1.999018318199E+00 1.872021790224E+00 -7.257340219841E-01 8.350202735761E-02 -1.370258351405E-01 1.240603602915E+00 -8.264651249194E-01 1.365155759195E+00 3.564936126846E+00 2.204211291737E+00 3.629040842030E+00 1.267541661187E+01 -1.244740582396E+02 -2.067083130972E+00 1.248411651373E+01 -7.808152508860E+01 1.400782922293E-02 -5.047867743683E-01 7.394930321886E+00 -8.059190231059E+00 4.831549194208E+00 -2.085279502149E+00 -1.761144624052E+01 -3.036933705945E+01 2.356418723078E+02
 -2.719742555269E+00 -1.885128557891E-01 5.249690216966E-01 -4.074230960796E+00 3.056613708563E+00 1.607391582331E+00 3.171821335107E-03 6.003029961143E-01 3.604820945716E-01 -2.013444009699E+00 -2.616181914522E+00 4.984633390154E-02 3.531559419063E+00 5.894581919267E-01 -4.407489156394E-02 -1.639924468255E+01 3.259129790302E+01 -7.342938181659E-01 8.695214504088E-01 2.009278554291E+00 1.763743634986E-01 4.177057755555E+00 8.295358922603E-01 1.604595223618E-01 -3.537413580738E-01 5.293713168546E-01 7.307488024706E-02 7.848779584055E-01 5.733433343055E+00 -7.012734227621E-02 -1.241518567025E+03 -4.164518034159E+02 1.095456281938E+01 -9.023293763958E+00 -1.649939250548E+01 -1.474755646841E+00 -1.164141378262E+03 4.210331463826E+02 -2.036569208771E+00 -4.822441166490E+02 -9.265315794677E+00 -1.757802222081E+00 -7.352205874313E+00 -1.628874947955E+01 -8.090323434599E-01 2.758533093259E+03
 -7.562839611765E+00 -1.157064044639E+00 1.049228384951E+00 -1.212507078755E+01 5.743810795567E+00 4.110527025903E-02 -2.107636126359E-01 9.464588007912E-01 5.589835269939E-01 -5.298603592181E+00 -6.016829082238E+00 -5.067733294899E-03 8.525878608535E+00 9.284710786323E-01 -2.463084560221E-01 -2.366079493931E+01 5.356657174120E+01 -1.290119871571E+00 2.655135087506E+00 5.552805807440E+00 1.926305296009E-01 1.067043366138E+01 1.204977481137E+00 -2.826071973661E-01 -9.793206410705E-01 1.669953388349E+00 3.197445950911E-01 2.445850630903E+00 1.484843233124E+01 9.518962991213E-02 -4.502958884654E+02 -6.765904923639E+02 1.365609410168E+01 -2.199026597324E+01 -4.133759118912E+01 -1.938709682122E+00 4.238485385819E+02 -7.232235216993E+02 6.148214209140E+00 -3.332971872624E+01 -1.449012035713E+03 7.891532322564E+00 6.780560516142E+01 1.023005968337E+02 -3.327795868389E+00 1.164292620863E+01 2.762062899157E+03
 2.646991028450E-02 -2.143876515825E-01 4.982444209707E+00 -1.588905461278E+00 1.524022633871E+00 -7.987234308874E+00 3.921955785823E-02 -3.342532654105E-01 3.854077049474E-01 -1.119364902628E-01 5.330831134098E-02 -1.474651044110E-01 4.114704412806E-02 -1.704772606181E-01 -5.960304392562E-02 1.446793564574E+00 3.983092855329E-01 7.479222285114E+00 4.004380230948E-01 3.536847982436E-01 3.588630858468E-01 6.357374353688E-01 -3.391454938306E-01 -8.463717915677E-04 2.271700506379E-03 2.565696906704E-01 1.724925018217E-01 7.688032556106E-02 -7.652164297603E-03 -3.606629620175E-01 6.288334725084E+00 3.511151073055E+00 -7.475992949697E+01 4.125443590809E+00 -5.871206177757E-02 -1.007727958004E+01 -3.993942142306E-01 4.630381732006E+00 -8.000609156366E+01 -1.021241144609E+00 1.528180869581E+01 -8.411770358569E+01 -1.583285115891E+00 6.349073393058E+00 2.566257785480E-01 -5.400073220369E+00 -2.061097295394E+01 1.923877593120E+02
 1.335404110222E+01 1.474746741886E+00 -1.601381115863E+00 2.283924550344E+01 -1.205160325217E+01 -1.959533952012E+00 2.278892409610E-01 -2.201076950812E+00 -8.830108964446E-01 9.657703203097E+00 1.113672060930E+01 1.260530922377E-02 -1.609378079677E+01 -2.117380984437E+00 4.255254689441E-01 -1.611762049733E+01 8.720972817147E+00 2.249782738671E+00 -4.736736828509E+00 -9.930214832761E+00 -1.262182519219E-01 -1.952091766301E+01 -1.632263957765E+00 -1.582607138015E-02 1.694124188185E+00 -2.863862538609E+00 -4.086267625417E-01 -4.048103010601E+00 -2.731299699867E+01 -3.332806758216E-01 1.070351188774E+01 -7.865547280788E+01 -1.257938903196E+01 -1.408159582506E+03 -4.188961885504E+02 1.459269534891E+00 -1.244587223185E+00 1.259111185437E+01 -9.883644831517E-01 -1.281642910886E+03 4.279085220671E+02 -1.611803936109E+00 -1.522999988510E+01 -7.315389049582E+01 7.702683440850E+00 5.577788735285E+01 3.515665910263E+01 -1.910115906006E+00 3.004748556464E+03
 -9.894926840487E-01 -2.918129733065E-01 -4.852380124258E-02 -1.788103577119E+00 7.012760366067E-01 5.476276325288E-02 -1.452412237489E-01 -2.081328349917E-01 -1.073639088699E-01 -9.687078250230E-01 -7.912405370241E-01 5.128437674657E-02 8.190648614151E-01 -1.708378178329E-01 -1.138796235915E-01 1.493741398114E+00 -1.178596093906E-01 3.417463198551E-02 6.155893392968E-01 8.256868586624E-01 -1.389165216189E-01 1.681767257250E+00 1.058411912716E-01 1.587049437708E-01 -1.352379568272E-01 4.396162135546E-01 3.254979411966E-02 5.840826822965E-01 1.813389900141E+00 2.261112902217E-01 -3.451760196931E-01 3.140777439590E+00 -2.044051766088E-01 -4.995582744213E+02 -8.442935108577E+02 1.174438678517E+01 -3.877568017457E-01 -1.247232756869E+00 1.493794834548E-01 4.491428187397E+02 -7.483240613880E+02 8.346556177114E+00 -8.744182632421E+01 3.963419146198E+00 -4.216865193137E+00 7.230769606794E+01 -3.096198899149E+00 -3.014735608580E+00 3.204070297233E+01 2.541818876796E+03
 1.025221706425E+00 -1.287436189353E-01 7.384101605415E-01 1.642707939577E+00 -3.651946312605E-01 6.054409284586E+00 1.919792087766E-01 -4.284153333006E-02 7.361468496730E-01 1.456378861624E+00 6.870452306193E-01 -2.422492046070E-01 -9.029395208509E-01 -5.284271411861E-02 1.190525513773E-01 -1.261210092188E+00 3.712992771398E-02 -1.791611119080E+00 -8.207933251948E-01 -6.546422825036E-01 6.735181913374E-01 -1.136787100014E+00 3.488636982452E-01 -1.054915188222E-01 1.628564793067E-01 -3.323163635917E-01 1.711995652609E-01 -7.208080470489E-01 -2.098324081489E+00 -8.168795278484E-01 -6.246702273931E-01 -2.758877090153E+00 2.629052514163E+00 9.775548271217E+00 1.384419648841E+01 -6.817897151496E+01 -3.709583225836E-01 7.514496271479E-01 3.724889329544E+00 -1.148592932074E+00 2.758046720142E+00 -8.122453252575E+01 -6.149900920404E-01 -1.525860002331E+00 -1.760662590189E+00 6.576462396119E-01 3.504670839264E+00 1.251187787955E+01 -6.161259073092E+00 -2.414488173369E+01 1.566672308374E+02
 5.663512717269E+00 8.346560935431E-01 -5.515001858275E-01 -1.242196070811E+03 4.542760132220E+02 -2.836295038362E+00 -1.452030767767E-03 -7.070570013972E-01 -2.818515641887E-01 4.070750253230E+00 4.743501107518E+00 -1.139190583530E-01 -6.490051235815E+00 -7.041219819313E-01 1.636143805689E-01 3.400295535385E+01 3.089163325226E+00 6.216217289958E-01 -2.145599613611E+00 -4.317783678490E+00 -1.134095605112E-01 -2.824612148318E+01 3.499173755815E+01 -8.409848903887E-01 7.660213790891E-01 -1.334302908697E+00 -2.191637539637E-01 -1.896020916726E+00 -1.142236980935E+01 -2.432338379767E-01 4.004814163550E+00 -3.200578162275E+01 -3.908918670918E+00 1.555216770736E+01 3.184388975168E+01 -1.525964570876E+00 5.829200537885E-01 5.623661981279E+00 1.619175637256E-01 -1.099595671970E+03 -3.905900597812E+02 2.102315993682E+00 -2.575177118740E+01 -2.967354249100E+01 2.727800450353E+00 4.116388312945E+01 1.421349530876E+01 4.954721256723E-01 -4.609743474717E+01 -3.121203153277E+01 -1.827121831714E+00 2.735409203879E+03
 3.407655752088E+00 1.980763856238E-01 -4.171796858255E-01 4.773136526402E+02 -7.589997537155E+02 5.302789291920E+00 1.386955941083E-01 -7.941000406321E-01 -1.770274685556E-01 2.080659073937E+00 2.562658216876E+00 1.602229129173E-01 -4.281234782770E+00 -6.292636571302E-01 1.292282152960E-01 6.294139423341E+01 1.641633762130E+00 7.403759128539E-02 -9.937035138743E-01 -2.350262315815E+00 5.015504625418E-02 -3.771264852475E+01 5.990620801863E+01 -9.373379188733E-02 4.021142405736E-01 -5.801794979345E-01 -3.221431800394E-02 -8.748178473407E-01 -7.107192009405E+00 1.728738652157E-02 3.132320329651E+00 -2.046110101332E+01 -3.615153328719E+00 1.065106102851E+01 2.047495570794E+01 1.647082865758E-01 -9.664252081410E-01 2.469157716859E+00 -1.090419659571E+00 -3.618805012400E+02 -6.696478018218E+02 7.201437064478E+00 -1.808315499605E+01 -2.007335148684E+01 -1.796624055288E-01 -5.992490879660E+01 1.054838878860E+01 -1.270065272824E+00 1.452099191105E+01 5.945765844810E+01 -1.287314092457E+00 -3.835385158410E+01 2.849495437371E+03
 9.831429691896E-02 1.023851368574E+00 4.623412424063E+00 -1.889422865168E+00 4.503747117351E+00 -8.316888567636E+01 1.185733014642E-01 3.667211038967E-01 2.865589419896E-03 1.281641986406E+00 7.618910460669E-01 4.610983943902E+00 -5.651110181379E-01 4.157469026236E-02 2.523143170935E-02 1.450968015157E-02 -5.781107512456E-01 8.652146716041E+00 -6.540174282976E-01 -1.258239715698E+00 4.342639806225E-02 -1.455681993800E+00 1.687164849328E-01 9.587665191824E+00 6.747287643165E-02 -3.480956982993E-01 -6.050188053655E-03 -4.189232597713E-01 -1.068195524523E+00 -6.344671795461E-02 1.618301387686E+00 -2.183651892722E+00 4.542783555641E+00 2.463034499902E-01 4.245433665691E+00 5.450356374468E+00 -1.425781659829E+00 -2.243998610037E-01 -8.864463729836E+00 5.794299420064E+00 1.422287472986E-01 -8.121666377187E+01 -1.280946719926E+00 -4.933880290916E+00 -1.475060614150E-01 4.634830676894E-01 3.205404964385E+00 8.000955988092E+00 -1.524699036059E+00 7.064701617826E-01 1.036427301166E+01 -2.172378536958E+00 -2.050233529234E+01 1.885961786193E+02