#BIOSYM hessian 1
@Type: Hessian Update
@Units
 distance: 	A
 energy: 	Kcal/Mol
#header
@natom 69

#label
C1      C2      C3      C4      C5      C6      C7      C8      C9      C10     C11     C12     C13     C14     C15     C16     C17     C18     C19     C20     C21     C22     C23     C24     C25     C26     C27     C28     C29     C30     C31     C32     C33     C34     C35     C36     C37     C38     C39     C40     C41     C42     C43     C44     C45     C46     C47     C48     H49     H50     H51     H52     H53     H54     H55     H56     H57     H58     H59     H60     H61     H62     H63     O64     H65     H66     H67     O68     H69

#element
C  C  C  C  C  C  C  C  C  C  C  C  C  C  C  C  C  C  C  C  C  C  C  C  C  C  C  C  C  C  C  C  C  C  C  C  C  C  C  C  C  C  C  C  C  C  C  C  H  H  H  H  H  H  H  H  H  H  H  H  H  H  H  O  H  H  H  O  H 

#matrix
207
 2.777232921146E+03
 -2.352358986390E+01 2.796901472510E+03
 -2.279350067752E+01 -2.219310716382E+01 1.912777804963E+02
 3.712237486458E+01 6.446889528497E+01 -1.205701474329E+00 2.804454216761E+03
 3.469723641454E-01 -2.799237731596E-01 1.510294181859E-01 -3.085448954085E+01 2.747375265707E+03
 -1.622299831319E-01 -8.902284618198E-02 8.422860003701E+00 -2.031617418696E+01 -3.398719902522E+01 1.915174209822E+02
 -1.946706564015E+01 3.426879889719E+01 -5.816036713775E-02 -1.475947507455E+00 7.371248790937E-01 4.629326692148E-01 2.810113023218E+03
 -3.224291879937E+01 5.874186034012E+01 -5.464368680796E-01 6.019205781801E-01 -2.603238665130E-01 -2.031116279241E-02 2.476922885389E+01 2.746742516839E+03
 1.995211343833E-01 -5.116632452309E-01 9.302976570752E+00 2.648872760727E-01 -3.368520160634E-01 2.706884119052E-01 -1.454291781176E+01 -1.483355200584E+01 1.875619506552E+02
 3.663786026391E+01 -6.710900553235E+01 6.502309226392E-01 -2.032458713597E+01 3.602721292027E+01 -2.086471508045E-01 4.016983681237E+01 6.871324112681E+01 -1.131588122010E+00 2.801928605382E+03
 -4.038687547517E-01 7.683821209848E-01 -2.618172157763E-01 -3.229046034492E+01 5.915960787898E+01 -8.491978423303E-01 -4.604917254829E-01 -7.977521481203E-01 -1.397212356838E-01 -6.529202996103E-01 2.803623512289E+03
 -1.210717324567E-01 8.551297394841E-01 8.640250665378E+00 -6.461631406613E-02 -1.132613140147E+00 9.099733811598E+00 7.085017093656E-02 -1.863472888248E-01 9.685740532171E+00 -1.446014121040E+01 -2.734855983268E+01 1.940408847981E+02
 -1.882818187510E-01 -4.851911512773E-02 -2.541903307044E-02 -5.016309704843E-01 2.462794589706E-01 -7.068589976843E-02 5.040002589738E+01 -8.357332406142E+01 9.203678243981E-01 -2.162774565066E+01 3.800654828664E+01 -2.367337138429E-01 2.608616625359E+03
 1.413544510908E-01 -3.601434890119E-01 2.686363214790E-01 -1.746475259883E-01 6.056047965500E-02 -3.215480962249E-01 -6.787813892477E-01 8.221225719932E-01 -1.034134348116E-01 -3.510869589568E+01 6.141876446988E+01 -6.635238314379E-01 -1.740595453929E+02 3.052726324554E+03
 -1.366160875146E-01 4.350549407503E-02 1.089719266640E-01 -1.974323630773E-01 -8.057855001727E-02 3.702275100149E-01 3.087844353209E-02 7.637293680489E-01 1.326858398831E+01 3.936530451747E-01 -9.142225491830E-01 1.102033001064E+01 -8.045108377228E+00 -2.664728279796E+01 1.507544195624E+02
 -1.218921051648E+03 4.507979070383E+02 7.525451673310E+00 -4.595527504928E+02 -1.517724359928E+01 2.171281239767E+00 2.930845620019E-01 -1.758059273596E-02 1.920445668627E-01 4.222647016777E-01 -4.071339014924E-02 3.539945986701E-01 1.521851673843E-01 9.048601194253E-02 1.239693602619E-01 2.824243244337E+03
 4.429569705429E+02 -7.420518161881E+02 2.259380114775E+00 -1.441664768127E+01 -1.403738521582E+03 1.606039162711E+01 -3.986859463501E-01 4.708055286536E-01 4.276589403537E-02 -7.329882273913E-02 8.509277279240E-02 -7.471068238966E-01 -1.703670423078E-01 1.705848557026E-01 -8.227277796308E-02 2.614866849788E+00 2.748943473832E+03
 6.854306596246E+00 2.186274368713E+00 -8.261833554263E+01 3.906849400626E+00 1.697753926453E+01 -7.996330505915E+01 9.355165066176E-02 8.107075910307E-02 4.708260666683E+00 -3.121406562173E-01 6.046234877262E-01 -8.633770165452E+00 -3.886523431977E-02 4.922687459972E-02 1.837395118162E-01 -2.988813400369E+01 -3.045217565303E+01 1.918012535315E+02
 -1.198488108198E+03 -4.066554348308E+02 1.237910361773E+01 2.445802924833E+00 -1.210648407148E+00 -5.623665713287E-01 -1.239499646849E+03 4.472060297833E+02 4.745936023024E+00 -4.694127742040E+02 -1.045414612742E+01 2.010951336432E+00 2.260990661718E-01 2.000400570637E-02 1.261499162605E-01 -1.988528781795E+01 -3.143259192128E+01 1.029365544680E+00 2.794126107484E+03
 -4.055067941618E+02 -6.865876694684E+02 9.191107335901E+00 2.185664716031E-01 -6.236316545585E-02 -2.240616936003E-01 4.569326239126E+02 -7.404960129679E+02 1.893315240443E+00 -1.375731621724E+01 -1.457938689675E+03 1.328731759008E+01 3.857466327727E-03 -1.867962939394E-02 -3.174361507597E-01 3.455101349874E+01 5.805917955995E+01 -8.286448655275E-01 -3.140778727790E+01 2.765934277597E+03
 1.324144408012E+01 7.869676493782E+00 -8.047773207015E+01 3.129424816358E-02 -9.327923999076E-03 -8.737249624883E+00 3.869343812183E+00 2.445830545846E+00 -8.249638709770E+01 2.754703875416E+00 1.320506648520E+01 -8.207056027158E+01 6.441557510098E-02 3.441967842375E-01 -1.029154175819E+01 4.076761624558E-02 9.648849530496E-02 8.468694830595E+00 -1.953648347229E+01 -2.369402585313E+01 1.912065794845E+02
 5.900670498972E-01 5.617906044368E-01 3.061274473456E-01 -1.228364766560E+03 -4.184935337557E+02 1.393648449442E+01 6.205382009446E-01 9.520651143922E-02 1.411406652142E-01 -1.211784225744E+03 4.408699268102E+02 2.424593440974E+00 1.390818997682E-01 1.879188333817E-01 1.440303748074E-01 3.600100803859E+01 7.641335733696E-02 -5.316519693823E-01 3.955128936465E+01 -6.569305014015E-01 7.820588434696E-02 2.804258149051E+03
 2.062565554659E-01 -1.427517799554E-02 1.454458165203E-01 -4.203421834755E+02 -7.032050494095E+02 1.142723833660E+01 2.039138004258E-01 -2.050155220853E-01 1.169652088697E-01 4.435128791843E+02 -7.388003046710E+02 5.815342766030E+00 8.719594971430E-02 -6.520377040824E-02 7.770016442738E-02 -6.637305749618E+01 1.395882829734E+00 3.720276066226E-01 6.706503902901E+01 -7.979186624541E-01 -5.074297789010E-01 1.639560254633E+00 2.795398992107E+03
 -4.588684043236E-01 -3.645618536290E-01 -8.857613752992E+00 1.532682534717E+01 1.026772995045E+01 -8.278120937882E+01 -1.049032479990E-01 3.254240607128E-01 4.612077140567E+00 1.757452372490E+00 5.431126480483E+00 -8.280842931488E+01 1.787266029028E-01 1.969143055582E-01 4.640670538744E+00 3.072206715942E-01 3.653347664958E-01 8.598101007703E+00 -5.645117701690E-01 -2.065898516311E-01 8.925849151619E+00 -1.854994809953E+01 -3.662500276091E+01 1.944911076737E+02
 6.265775555979E-02 2.066684221285E-01 8.769942276331E-02 4.646692166646E-01 -1.938785354978E-01 -1.920370738017E-01 -1.245340862779E+03 -4.448394669755E+02 7.813278687592E+00 1.367886381679E-01 5.615360537799E-02 -2.462604491479E-01 -5.672015233402E+02 -1.242599151401E+01 1.677379568776E+00 -1.344780380422E-01 5.027620647349E-02 6.098916005457E-02 -2.182382341091E+01 -3.698843000681E+01 5.440328261110E-01 -2.620745912001E-01 -4.412465327803E-02 2.105764212333E-02 2.606967254003E+03
 -6.870150359151E-02 4.671771273283E-01 -1.407832213411E-01 5.655624853365E-01 -2.828367531285E-01 2.601729249648E-01 -4.603645233764E+02 -7.701089796367E+02 6.692572302102E+00 2.881240326167E-01 5.967033187735E-03 3.896337097208E-02 -2.208648677898E+01 -1.812869217976E+03 1.612205126286E+01 -1.635499861751E-01 -5.735950392642E-02 8.306541116941E-03 3.571282651730E+01 6.102461146980E+01 -8.651543523610E-01 -3.652929381899E-01 4.070580936835E-02 -2.343932799087E-01 1.924690358009E+02 3.026584560248E+03
 -1.292765976666E-01 1.271575596064E-02 4.253474565982E+00 -1.649580073370E-01 2.882126617047E-01 -3.169462387557E-01 8.607746416131E+00 6.453531277594E+00 -7.843552295965E+01 -9.821147914570E-02 1.997295936007E-01 -1.069781894328E+01 1.882567358262E+00 1.593055771723E+01 -7.136451667914E+01 -4.425425699261E-02 1.767559086043E-01 -1.862091696078E-01 -6.075537367052E-02 1.920121419616E-02 9.467247785523E+00 -2.938847824354E-01 -3.754936244792E-02 7.191512549663E-02 -1.067937295747E+01 -2.569389241556E+01 1.537726831139E+02
 1.922443247306E-01 1.580985412137E-01 -2.014297677544E-01 5.774361392688E-01 -3.188813508406E-01 4.745155625572E-01 1.764138905615E-01 -9.381714536480E-02 6.464962057560E-02 -1.236570014083E+03 -4.327892767325E+02 1.082484750260E+01 -1.264206330888E+03 4.694073830779E+02 8.365912400459E-01 -1.947982445020E-01 8.129210076563E-02 1.599465467276E-02 3.868540217171E+01 -4.459912148544E-01 -5.290673468474E-01 -2.042968195412E+01 -3.371242837326E+01 4.621901574664E-01 5.228946184003E+01 -6.540443587868E-01 8.327549975327E-02 2.858336248225E+03
 -3.548679946550E-01 2.269042786368E-01 -2.245553128200E-01 -6.804306733559E-01 4.717080320835E-01 1.249933436689E-01 -8.736924006368E-02 2.828235344276E-01 2.035944128063E-01 -4.306132470321E+02 -7.258015527017E+02 9.216501971329E+00 4.590098595617E+02 -7.941708602087E+02 5.411871491827E+00 6.142717554798E-02 -4.516032890741E-01 -2.349707439888E-01 -6.831593920822E+01 7.187770142475E-01 4.611173882706E-01 3.573954393057E+01 5.965797082746E+01 -4.311664462532E-01 8.451175866337E+01 -1.226144665374E+00 -2.096808510923E-01 -4.099795166656E+01 2.881162487580E+03
 2.127722788499E-01 1.342775132082E-01 4.245071582525E+00 5.651550296364E-04 1.364209402014E-01 4.261050087321E+00 -4.188120734844E-01 -3.431701916287E-01 -1.135597851567E+01 1.115126472670E+01 9.057722371863E+00 -8.529122765447E+01 6.838913638905E-01 5.498760001910E+00 -7.795844598211E+01 -2.363860601987E-02 -4.787328841366E-02 -1.445147973739E-01 3.213254101756E-01 3.111109314446E-01 9.522862510933E+00 -4.450060745998E-01 -2.279398555350E-01 9.047533404577E+00 -6.147097477669E-01 9.129684616108E-02 1.187850717886E+01 -1.304388195485E+01 -3.106434278717E+01 1.863074111592E+02
 -6.839153599202E+00 -8.617611639806E+00 1.363333282950E+00 -3.818939376735E+01 2.021037541393E+01 -6.185175178316E-01 -8.082467568536E+00 -2.411859663370E-01 2.184726410349E+00 -5.827014935521E+00 7.471161440432E-01 -4.168751704880E-01 -1.845937348000E+00 -2.997255499056E+00 8.593441481449E-01 5.205024972080E+00 -1.123396755723E+01 -9.132549657758E-01 1.089364805549E+01 1.537582983896E+00 2.203247790341E-01 1.407427464881E+01 3.925903348161E+00 1.287808408808E-01 2.821417523677E+00 5.204317493122E+00 -1.732270971991E+00 2.215600099530E+00 -1.380943067497E+00 -7.499236906033E-01 2.651442854751E+03
 2.220026828181E+00 3.303883598278E+00 -1.351871668765E-01 1.518634108168E+01 -9.093845177081E+00 4.470739056547E-01 3.505006228332E+00 2.533447384905E-01 -5.740742627759E-02 2.156220321546E+00 -8.351414883184E-01 -1.627066156570E-01 5.107174332100E-01 1.451859651711E+00 -4.147908725227E-01 -6.989314689639E-01 6.291527841192E+00 -7.192648590419E-02 -3.867574657246E+00 -5.580504133146E-02 -1.326755543497E-01 -5.543742666422E+00 -1.480016689296E+00 1.709144393835E-01 -1.252538374383E+00 -2.431400245078E+00 -4.268690774145E-02 -4.465187966590E-01 4.803014259994E-01 9.739454827963E-02 6.203017749648E+01 2.627700209285E+03
 -2.805076579327E-01 -1.085261819871E+00 3.201911321211E-01 -7.147368447232E-01 1.955786971502E+00 6.669833351144E-01 -4.306443152170E-02 -1.293729552465E+00 4.016763733219E-01 -9.365625520085E-01 5.019724715133E-02 -1.362521128992E+00 -4.451713300187E-01 -5.479256338611E-01 3.170086207122E-01 2.377091010892E+00 1.268563097138E+00 3.760035083997E+00 7.169604771519E-01 8.756861575181E-01 -1.305343957953E-01 1.138075300380E-01 -9.049297805155E-01 -1.712985315110E-01 -8.626999675943E-02 8.198037799226E-01 1.024084881824E+00 5.733932076909E-01 5.111593795175E-01 -3.494237899917E-01 -4.130440265155E+01 -4.088888600979E+01 2.072013395219E+02
 -3.288906556614E+00 -1.904270074876E+00 4.133912047339E-01 -1.592538415499E+01 9.245785321453E+00 1.742877108792E-01 -3.213442230860E+00 1.282947746004E+00 7.276187787690E-01 -1.375481036049E+00 7.250413945018E-01 -3.958621807823E-01 -8.751179292435E-01 -3.819041269973E-01 5.108381040368E-01 5.842940780017E-01 -6.658601107326E+00 -5.432573083805E-02 4.349595253048E+00 -1.812379341989E-01 1.796945109417E-01 4.908984684155E+00 2.182428993796E+00 -1.250920850741E-01 8.808651460653E-01 1.241493714863E+00 -2.395848217645E-01 6.390453551632E-01 -1.553420273054E+00 -3.744209311245E-01 -4.437941936775E+01 1.221775854852E+02 4.637169794023E+00 2.680344567213E+03
 -3.979587919762E+00 -5.028687232671E+00 8.412589197902E-01 -2.790600457122E+01 1.624963961038E+01 -2.480099600694E-01 -5.797863751701E+00 7.055621985911E-01 1.849976779243E+00 -3.295042983382E+00 1.456151815161E+00 -5.510170023182E-03 -1.049867702679E+00 -1.724815725419E+00 1.368487925629E+00 8.066521360820E-01 -1.138903638320E+01 1.281890722302E-01 6.925405578671E+00 -1.551605436891E-01 4.679982218493E-01 9.883679375515E+00 3.183732664483E+00 -1.156727922901E-02 1.821645214468E+00 3.377495940376E+00 -1.623173222673E+00 7.780371798437E-01 -1.888887578417E+00 -1.133048383252E+00 -1.754276867539E+02 8.367494776395E+01 3.023974342381E+00 1.783778802223E+02 2.777262640081E+03
 1.541228239356E+00 5.858764168733E-01 1.717631534403E+00 5.524495504930E+00 -2.907527480049E+00 -9.993738555313E-01 1.240239729414E+00 2.178481882868E-01 3.720949734137E+00 8.241705111818E-01 -3.818910885083E-01 -1.143908645644E+00 3.609572492461E-01 4.247177955814E-01 3.861383124067E-01 -1.006365801132E+00 7.710628114225E-01 -1.037866445234E+00 -1.562556602236E+00 -3.650664134400E-01 4.645697843236E-01 -1.490854142483E+00 5.979344238557E-01 5.360072996978E-01 -7.763982782172E-01 -7.769177221308E-01 -3.478088213994E+00 -1.787407021626E-01 3.059534619515E-01 -1.402065888707E+00 1.175852948400E+01 -7.791719117895E-01 1.204715858528E+01 -4.531482548297E+01 -5.675442817244E+01 1.673299442954E+02
 -2.101799479401E+01 -3.403270275478E+01 3.126973513298E-01 3.694514124605E+01 3.662108848586E-01 2.187840891703E-01 -2.707106487386E-01 2.325443656252E-01 -3.078357134364E-01 -1.739807671224E-01 -1.988133097944E-01 -3.011521856773E-01 -2.005724059266E-01 9.448343190173E-02 -3.403339824921E-01 -1.262393496956E+03 -4.340193386224E+02 1.914226101254E+01 7.034031435903E-01 1.797811429422E-01 -4.271814624338E-01 3.175745397061E-01 3.286301259998E-01 3.936966246164E-01 5.506313015019E-02 -6.271711093945E-02 2.037130084608E-01 2.723440644264E-01 -1.558185113612E-01 2.573022993674E-01 -1.938034054351E+01 3.415080945706E+01 -2.246655882185E+00 2.881479456163E-02 3.132440756700E+00 1.065811964368E+00 2.776748335603E+03
 3.622993593347E+01 6.046977385933E+01 -9.313744415506E-01 -6.845883224642E+01 1.079801633646E+00 1.842249423883E+00 -2.826065672866E-01 -2.648359412715E-01 1.549658473616E-01 -3.208456936719E-01 -1.325962211365E-01 8.192532246001E-02 -3.174663349033E-02 -2.382463311619E-01 2.973370779059E-02 -4.392922163011E+02 -7.190355238659E+02 1.091967083766E+01 3.385048374179E-01 2.499067248661E-01 4.037249211882E-02 4.451682518551E-01 5.731132830431E-02 3.642267741713E-01 1.632141831800E-01 2.886828497809E-01 -1.532443363071E-01 1.296884666605E-01 2.189987660188E-01 1.389760359416E-03 -3.612251681713E+01 5.743239091171E+01 -2.987348642876E+00 6.755463707823E-01 2.938853403494E-01 1.847517819350E+00 2.761897259260E+01 2.785260292055E+03
 -7.614998058421E-01 -1.543845383203E+00 9.243244326794E+00 -7.739252172283E-01 9.613762014216E-01 9.357696746361E+00 -3.411353195604E-01 -5.177599961187E-01 -1.169329693973E+00 -7.482105507596E-01 4.607951104289E-01 5.318024459951E-01 -2.317830405831E-01 -2.437640330999E-01 -6.403088425077E-02 1.997391587767E+01 1.357458161056E+01 -8.294301857971E+01 1.126278657955E+00 3.621252528541E-01 4.501612288460E+00 3.575719863582E-01 -8.074166720999E-01 4.290388877280E+00 1.706861567036E-01 4.197468538746E-01 9.586820238224E-01 2.419166062037E-01 -1.729156770293E-01 3.953637983846E-01 -1.921647681862E+00 -3.483602324104E+00 6.786294808882E+00 -1.820000188050E-01 -4.803501072872E-01 -7.287446472546E+00 -3.274873584692E+01 -2.969716359396E+01 1.933445997238E+02
 -6.051771883657E+00 -3.443593914669E+00 9.505605204203E-01 -4.387055111186E+01 -1.764775946493E+01 -6.186268500941E-01 -4.737034607966E+00 2.194320535251E+00 1.336886478702E+00 -2.508212560357E+00 2.795848986040E-01 -6.380689531104E-01 -1.655031129936E+00 -3.949154410147E-01 -1.343338216500E-02 3.548742344158E+00 -9.084237788385E+00 -2.081148423012E-01 7.540745590698E+00 6.331893048612E-01 6.289817974629E-02 8.365643619000E+00 3.526781047020E+00 2.877699830661E-03 1.256016088648E+00 1.651759886474E+00 -9.360823090546E-01 1.857209326378E+00 -2.466147026512E+00 -1.215258919813E-01 -8.574882727530E+01 -1.498150881184E+01 7.193181731709E+00 -7.835185246129E+01 -5.784107405228E+01 1.787264332684E+01 3.457140678011E+01 6.285164601006E+01 -3.736028057491E+00 2.716410241302E+03
 3.020675352332E-01 5.325304960932E-01 -4.562499608288E-02 3.541202110856E+01 5.592214156598E+01 -1.310086038570E+00 2.305832742958E-03 2.290050692559E-01 -1.227551879543E-01 4.003623712591E-01 3.371978729481E-01 -4.063760892134E-02 2.158530012804E-01 2.283261566365E-01 1.917016946521E-01 -8.370268723518E-01 -3.532143255814E-01 2.306350509742E-01 -5.625875877353E-01 -5.596104142916E-01 3.112777462439E-03 -7.538488310555E-01 -1.406605836427E-02 -3.214704035812E-02 -5.569781887308E-03 -2.823223498631E-01 1.416806659219E-01 -4.931350311303E-01 -1.584750993921E-01 -1.300510779792E-01 1.056886004468E+00 5.484646244814E+00 2.240696667682E+00 -4.312661606890E+01 6.921536292434E+01 -3.454223331490E+00 9.170392572386E-01 2.541222481443E-01 1.577888398838E+00 -7.819757265866E+01 2.737669299542E+03
 1.098644494077E+00 -2.143589029729E-01 -7.883388083809E-01 2.369262933060E-01 -2.805352665827E+00 7.514166537123E+00 2.031358958157E-01 -7.025367827639E-01 -1.866263096649E+00 -2.895778462119E-01 -1.081753422252E+00 7.584741714698E-01 -2.371861383749E-01 -9.262349145938E-01 -7.073550103331E-01 -2.375068532312E+00 -8.115267791343E-01 -8.216248633882E+00 -2.659042460006E-01 6.954747068298E-01 -2.911262353103E-01 1.846008286170E+00 1.049340526794E+00 4.360185222714E+00 1.459036244156E-03 9.781888207607E-01 1.167531307076E+00 6.551527557469E-01 8.420304834776E-01 1.062169276237E+00 -3.960538326312E+00 1.450778274393E+00 1.593464568884E+00 -2.999547554315E+00 -5.572153353766E+00 6.719530307827E+00 3.029331683528E-01 9.343813929919E-01 1.102847268756E+01 -2.987847179765E+01 -4.316862251093E+01 1.931946456033E+02
 7.606764764382E+00 8.426517275376E+00 -1.525495116897E+00 4.722920507249E+01 -2.837792509966E+01 1.654733990767E+00 9.439718861860E+00 -2.820881564864E+00 -2.335112284437E+00 5.282775979050E+00 -1.821407782684E+00 9.649856311674E-01 2.289597633368E+00 1.858558768702E+00 -3.204525447238E-01 -3.796059156060E+00 1.723572391642E+01 4.740960809410E-01 -1.310561905761E+01 1.784878932869E-01 -5.383058909668E-02 -1.631613667833E+01 -7.719996530094E+00 -1.287056190940E-01 -1.924332494655E+00 -4.753881991854E+00 1.810780736319E+00 -2.682753029232E+00 4.219556868370E+00 5.611926935219E-01 -1.022982231613E+03 3.215944738819E+02 1.719768267655E+01 -3.480724534459E+02 2.227860179513E+02 -1.221056423074E+01 -2.046937148807E+00 -1.166595375329E+00 3.728813212341E+00 1.635748707621E+02 6.285806420813E+00 3.159288112851E+00 2.049279403726E+03
 -9.912920067455E-02 5.947178654211E-01 4.671528457938E-01 9.484592144105E+00 -8.704404970049E+00 3.032927299921E-01 2.152432545068E+00 -1.378829122303E+00 -1.618927031287E-01 6.866053816105E-02 -1.466216546871E+00 -4.061335258306E-01 1.109467371263E-01 4.472660063696E-01 -6.000811749351E-01 3.981809731688E+00 7.677779602367E+00 -7.168461181801E-01 -1.836149065614E+00 1.860531387789E+00 -3.448171608913E-01 -3.084551681854E+00 -3.088223406533E+00 -5.313429790590E-02 1.305464645200E-01 -1.277440691886E+00 6.185648123867E-01 1.433905162732E-01 1.355465805200E+00 3.939477722682E-01 5.953912382174E+02 -8.019852338328E+02 6.464737968000E+00 -1.360197266446E+01 -1.537333358437E+03 2.674752657909E+01 -5.496434154761E+00 -7.147191199627E+00 1.960424226825E-01 3.978011292444E+01 9.693890772657E+00 -4.433626858010E+00 -3.664841594822E+02 2.670846100749E+03
 -7.613652676789E-01 -1.853731157074E+00 -3.149527782343E+00 -7.611552691567E-01 -4.584888458363E-01 2.570146242720E-01 -1.018503453494E+00 -1.683652586343E+00 -6.470913710478E+00 -1.367063214650E+00 -4.286144950905E-01 3.603416633300E+00 1.392836711211E-01 -1.811166773412E+00 -1.499783207499E+00 8.834956925529E-01 2.651482679276E+00 2.446424206716E+00 9.032778129912E-01 6.884242592416E-01 -5.331291972558E-01 1.209058784103E+00 -6.567059441292E-01 -4.559898594463E-01 8.524679951038E-01 1.878850752354E+00 3.968051082665E+00 4.398489603528E-01 1.773143203006E+00 3.028594078392E+00 2.366927206356E+01 -4.098216788204E+00 -1.092578574894E+02 1.482182455766E+01 5.457517009612E+01 -1.021998782326E+02 -2.021136721455E+00 -2.167231370713E+00 1.718613117040E+01 2.490739650495E+00 2.830711951072E+00 1.307687160179E+01 -5.070503877495E+01 -6.701833512861E+01 2.721516647813E+02
 2.868044731998E+00 2.420547606492E+00 -5.595076728296E-01 1.222591202018E+01 -6.257942484839E+00 1.283106252305E+00 2.458537743749E+00 -4.054399999205E-01 -7.930618282820E-01 1.719966169196E+00 1.297627451677E-01 4.714667202743E-01 7.912466797765E-01 6.720084116515E-01 1.144003468688E-01 -2.202991528768E+01 3.889737334133E+01 6.468352913398E-01 -3.810544864010E+00 -7.293151895812E-01 8.380534365888E-02 -4.488026639055E+00 -1.551596449644E+00 4.311742655614E-02 -8.216596522252E-01 -1.303102500646E+00 6.386156452544E-01 -1.068782757012E+00 6.021037154395E-01 3.998464957497E-02 -1.182332330769E+03 -4.515909410109E+02 2.605524380914E+01 2.418311032877E+01 4.284354519791E+01 -1.081351610499E+01 -1.156510554422E+03 4.272123688950E+02 1.069082290756E+01 -4.215956971893E+02 -2.620751187026E+01 5.528960918553E+00 -8.635818699383E+01 -3.973510400460E+01 9.252217385927E-01 2.732826113867E+03
 5.214395613633E-01 7.332236109640E-01 -2.043685408867E-01 2.762871072620E+00 -1.689990546477E+00 -1.274800776383E+00 7.102711979781E-01 -1.533975647392E-01 -5.813067723485E-01 4.160341739042E-01 5.312512964016E-02 -8.701187898964E-02 8.346325603253E-02 2.353350405058E-01 -2.002317942939E-01 -3.220296507641E+01 5.948078660637E+01 3.762723888008E-01 -8.587463652217E-01 3.003058875838E-02 2.780503996517E-02 -1.420456473054E+00 -7.646711681468E-01 -3.405837208895E-01 -1.954705556794E-01 -3.888181723693E-01 7.666433027802E-01 -1.482625808424E-01 1.659425997808E-01 2.795005822767E-01 -4.170072367198E+02 -7.326538171108E+02 1.807998974669E+01 7.228891941822E+00 1.928538550446E+01 -6.121659261371E+00 4.247042876411E+02 -7.139853497611E+02 4.490690914753E+00 1.598786631201E+00 -1.459758864173E+03 2.096112393923E+01 2.650832718408E+00 4.947404810361E+01 2.469223702856E+00 1.556588570814E+01 2.770774835374E+03
 7.109659952848E-01 2.842556914066E-02 5.970606158665E+00 2.691321824670E-01 2.501491903799E-01 -9.197296037871E+00 6.556275679095E-01 5.679885831524E-02 3.443529186163E+00 -1.927213734613E-01 -6.819924986045E-02 -2.455810923963E-01 4.341475094853E-02 1.521985771211E-01 7.835866793913E-01 1.824781198543E+00 -3.396954034738E-01 8.139568046647E+00 6.102809777179E-02 -5.648942187698E-02 6.227692992632E-01 1.971935941047E-01 -9.020369963720E-02 2.865567768953E-01 -5.466366003924E-01 -3.045953876689E-01 -3.694436607129E+00 2.484973320181E-01 -1.889804098733E-01 -1.575798370267E+00 2.875253403152E+01 1.457650227789E+01 -8.918392432082E+01 1.209463779708E+00 -1.152490209959E-01 5.507970467625E+00 1.052001181576E+01 3.793128603571E+00 -8.417128746471E+01 7.943245007174E+00 2.426338246591E+01 -8.509275262041E+01 -6.793453069790E+00 6.241813869050E+00 -6.560418759214E+00 -4.396576775739E+01 -4.255641828389E+01 2.056556166514E+02
 6.324970841196E+00 2.823688025660E+00 -7.515223050079E-01 2.501300393443E+01 -1.354150884117E+01 6.107691559313E-02 4.734623165700E+00 -2.920105228719E+00 -1.092370089701E+00 2.043965849998E+00 -7.060187239604E-01 4.430045387912E-01 1.582047872171E+00 -1.860834614458E-01 -9.422731060039E-02 -3.184506787415E+00 9.451338577562E+00 2.428332913452E-01 -7.452314725199E+00 -6.999113419553E-02 -7.041953828426E-02 -7.653872863862E+00 -3.572028497214E+00 -6.876516800924E-02 -1.096226680307E+00 -1.026830536449E+00 7.566912466962E-01 -1.528292082317E+00 3.135712525908E+00 1.414188677730E-01 1.233553952755E+02 -5.737775453137E+01 -5.466583927813E+00 -1.398227377714E+03 -3.811417218889E+02 1.913686860226E+01 2.672508497710E+00 4.241035811668E-01 1.540754854491E+00 -1.244647581161E+03 4.719099685035E+02 8.159056088589E+00 -1.316192393657E+02 -5.794839978507E+01 -8.088266113986E+00 2.006833310153E+00 -1.423000839542E+01 -3.583046063402E+00 2.986738317770E+03
 -2.400082730423E-01 6.444668546005E-02 6.211537652837E-02 9.887282131727E-01 -1.146621382523E+00 3.821828273206E-01 3.050180834629E-01 2.970626292109E-02 1.111437533770E-01 8.782234252001E-06 -3.505761074076E-01 6.453913512581E-02 -6.299447058957E-02 1.182540390988E-01 -9.364184558293E-02 6.271936826879E-01 1.095267963160E+00 -1.372158997577E-01 3.439002428109E-02 2.441899568004E-01 -3.416660898171E-02 -2.401420396297E-01 -7.631190936617E-02 8.210801414545E-02 -1.009950879757E-01 -2.520820525239E-01 -1.868997910259E-01 2.113672734962E-01 9.082762692719E-02 9.285777487830E-03 1.039836956237E+01 -8.942238281650E+00 2.813382190806E-01 -4.810271169201E+02 -8.179803643665E+02 2.717595734187E+01 -1.364561018345E+00 -5.237070533731E-01 -3.351836393604E-01 4.654190202029E+02 -7.527662592777E+02 8.756825458265E+00 -1.068056053316E+02 -1.105116187322E+01 -5.395224887071E+00 7.012856204821E+01 -3.517868999308E+00 -2.387060870544E+00 1.157749627353E+01 2.534845886736E+03
 6.344443754751E-01 3.225837746438E-01 1.475105600102E+00 1.736013090462E+00 -1.873874379800E-01 4.531149703010E+00 5.048299393031E-01 2.093624783618E-01 3.097976911364E+00 3.574509564016E-01 -1.772696792926E-02 -1.343141820394E+00 9.295162895429E-02 3.494532445626E-01 7.030256310368E-01 -1.591917455713E-01 -3.143661119537E-01 -1.015637729460E+00 -5.351310961652E-01 -2.332135789572E-01 3.470071698152E-01 -6.225190253468E-01 2.791730242800E-01 2.039063613537E-01 -3.760971333012E-01 -4.482201331302E-01 -2.246948422627E+00 -9.861589450980E-02 -9.905807775837E-02 -1.422330515484E+00 1.165764404944E+00 4.590634075259E+00 -1.572945705654E+00 3.337154416150E+01 2.270837622913E+01 -5.718535035996E+01 1.868030529263E-01 9.546093065013E-01 -1.021394710047E+00 9.980164373385E+00 4.761789533426E+00 -8.701192571695E+01 6.608754770815E-01 6.019826306421E+00 -2.345687249175E+01 -3.815072767555E+00 -6.073678547781E-01 1.953685713167E+01 -4.522143257917E+01 -4.866921263255E+01 1.690024942664E+02
 3.821637844253E+00 1.757931695725E+00 -4.942185055339E-01 -1.225749975331E+03 4.529139214592E+02 4.765912920306E+00 2.701667871419E+00 -1.665529414517E+00 -7.557772227097E-01 1.076365522898E+00 -3.168407345597E-01 3.563379549517E-01 9.537979414146E-01 -5.608615310195E-02 1.267600895947E-01 3.869971544200E+01 4.316544798353E+00 6.919236330179E-02 -4.349096566574E+00 -8.166579856036E-02 -1.235253839603E-01 -2.460484121191E+01 3.517253249152E+01 -1.074149552725E+00 -6.589713116191E-01 -6.426176508086E-01 4.218513219483E-01 -9.521950499339E-01 1.680466497714E+00 -4.162660700068E-02 7.233666274860E+01 -3.117716540262E+01 -2.619774411902E+00 3.362261989071E+01 5.851994557922E+01 -9.570346702207E+00 1.663824615476E+00 5.808125100663E-01 2.301602831455E+00 -1.075838109117E+03 -3.716501114848E+02 1.669869820564E+01 -9.881466395151E+01 -2.801214657860E+01 -2.533744118715E+00 1.324962976794E+01 -7.656073135491E+00 -2.667611066301E+00 -6.928656912442E+01 -3.574423744167E+01 -1.718164889767E+00 2.701026125771E+03
 1.875143008699E+00 4.677494809904E-01 -2.057181640049E-01 4.778436643531E+02 -7.582704245812E+02 7.481373147582E+00 1.211113114326E+00 -1.136687709455E+00 -2.794669547643E-01 2.719374909380E-01 -4.881114905874E-01 2.042728546819E-01 2.939968730613E-01 -4.517062157403E-01 -7.879639089069E-02 6.556253736130E+01 8.582675805082E-01 -1.057077254353E+00 -1.791742316156E+00 3.096047875051E-01 3.000561824496E-03 -3.417828772564E+01 5.979303682285E+01 8.883235534287E-02 -2.384549857934E-01 2.261329627625E-01 3.170144423040E-01 -2.602802087976E-02 1.133650523211E+00 1.906908865951E-01 2.726085723678E+01 -1.261135944906E+01 -2.396965039957E+00 1.443977316308E+01 2.491902058239E+01 -1.592787953598E+00 -6.454482302450E-01 -2.206765853559E-01 -5.168599439284E-01 -3.526864067491E+02 -6.598828363992E+02 1.679357811504E+01 -4.308937606051E+01 -1.763940340333E+01 -3.815458227082E+00 -7.175929265274E+01 -1.691661491101E+00 -9.150548423528E-01 1.163728019604E+01 5.721894239159E+01 -1.241539186930E+00 -4.446888136703E+01 2.814786890832E+03
 -5.625354205538E-01 1.338717980069E+00 4.365257510581E+00 3.438016534733E+00 7.225804816139E+00 -8.316565875225E+01 -4.185576775194E-02 4.271876414974E-01 -9.743363164857E-01 1.040397128595E+00 4.513142833276E-01 4.267343500821E+00 9.274565868223E-02 1.674187667205E-01 -5.909216126286E-01 2.936442459275E-01 -7.393713729215E-01 8.555851668800E+00 -4.785133639537E-01 -8.683185945134E-01 -3.432518228278E-01 -6.641293782134E-01 -4.429487931476E-01 9.782009075736E+00 9.158795077821E-02 -2.143910464880E-01 1.273147945759E+00 -2.876469296313E-01 1.310425179828E-01 6.949757181266E-01 4.095777456541E+00 -4.416422582321E-01 6.842576668961E+00 -6.150075195272E-02 2.614531314331E+00 3.621094250078E+00 -1.595287841021E+00 -1.070833884287E+00 -8.418515237002E+00 1.895767441703E+01 1.138834040377E+01 -8.194145672770E+01 1.068352993271E-01 -1.971569266863E+00 -3.049355045025E-01 -6.145900096929E-01 2.241211308196E+00 5.012003422732E+00 9.895218113036E-01 9.659565593843E-04 9.567684387034E+00 -2.610206506068E+01 -4.822839329097E+01 1.896031294828E+02