#BIOSYM hessian 1
@Type: Hessian Update
@Units
 distance: 	A
 energy: 	Kcal/Mol
#header
@natom 71

#label
C1      C2      C3      C4      C5      C6      C7      C8      C9      C10     C11     C12     C13     C14     C15     C16     C17     C18     C19     C20     C21     C22     C23     C24     C25     C26     C27     C28     C29     C30     C31     C32     C33     C34     C35     C36     C37     C38     C39     C40     C41     C42     C43     C44     C45     C46     C47     C48     H49     H50     H51     H52     H53     H54     H55     H56     H57     H58     H59     H60     H61     H62     H63     O64     H65     O66     H67     H68     H69     O70     H71

#element
C  C  C  C  C  C  C  C  C  C  C  C  C  C  C  C  C  C  C  C  C  C  C  C  C  C  C  C  C  C  C  C  C  C  C  C  C  C  C  C  C  C  C  C  C  C  C  C  H  H  H  H  H  H  H  H  H  H  H  H  H  H  H  O  H  O  H  H  H  O  H 

#matrix
213
 2.788635144064E+03
 -1.927932315944E+01 2.809704296367E+03
 7.535704056437E+00 2.725820097838E+00 1.927357922212E+02
 3.756204817727E+01 7.090397133603E+01 -7.967319834751E-01 2.809513341123E+03
 -1.370258848909E-01 -1.935267976928E+00 -5.616502206108E-02 -2.788426142444E+01 2.766466201299E+03
 -3.696633932085E-02 3.323632227167E-01 8.462586000822E+00 5.219508496744E+01 2.815668046064E+00 1.945646169337E+02
 -1.963736738788E+01 3.667752408582E+01 1.147950942878E-01 -3.483676637877E+00 9.647199889918E-01 1.171610905882E-02 2.818504756344E+03
 -3.334517022040E+01 6.022302357858E+01 6.608622682388E-01 -1.419720744736E+00 3.239940734130E-01 -1.851092149142E-01 2.597382609401E+01 2.755950312018E+03
 -1.210503369626E+00 1.894984619240E+00 9.275586869805E+00 -1.665607061418E+00 3.182986279534E-01 3.575754574414E-01 5.628197437952E+00 3.501347696280E+01 1.897190622248E+02
 3.673220663315E+01 -6.595433656757E+01 -3.345741205563E-01 -2.044980161663E+01 3.582777112731E+01 -3.390562718331E-02 4.038523699949E+01 6.952067286571E+01 9.139888589622E-01 2.811186585041E+03
 1.281553606029E+00 -3.205525445887E+00 -8.422745592636E-01 -2.677515560223E+01 5.799887768200E+01 6.572166492985E-01 2.309910933910E+00 4.403741916855E-01 3.843297948025E-01 1.017661018974E+00 2.814376322977E+03
 2.181727192101E-01 -4.006864495079E-02 8.812574646204E+00 -1.026805894115E+00 1.266987834744E+00 8.928973580507E+00 3.984746933200E-01 3.603793966629E-02 9.835106231157E+00 2.056137718317E+01 3.128074657704E+01 1.958362276188E+02
 7.089269329966E-01 -1.717501899583E+00 5.351393327725E-01 4.166401128208E-01 1.014960135307E-01 1.709001081623E-02 5.055474481071E+01 -8.458190563220E+01 -8.615965542767E-01 -2.005410295565E+01 3.803046030042E+01 3.795181201963E-01 2.599600341783E+03
 6.859427143717E-01 -1.907831850085E+00 4.217495330321E-01 2.699083993862E+00 -6.770974303805E-01 -7.617252520102E-02 7.467676970750E-01 1.145294269968E+00 1.475144949867E-01 -3.475708285021E+01 5.996383664680E+01 3.935826168312E-01 -1.802843998686E+02 3.049237102729E+03
 -1.398848786173E-01 -4.466810032976E-01 -1.140472865663E-01 8.591646392349E-01 1.965137997309E-01 1.076224103963E+00 4.671086092348E-01 -5.451253401249E-01 1.176731324529E+01 -7.146478634416E-01 5.385291035180E-01 1.081775624579E+01 1.094453669255E+01 4.533648624633E+01 1.536971889940E+02
 -1.224219919372E+03 4.468995210931E+02 -2.475859643921E+00 -4.572008097547E+02 -1.294044826804E+01 -5.174262676889E+00 1.314482066567E+00 5.038517447684E-01 7.895500252972E-01 4.284993934424E-01 -2.532617549915E+00 1.035157799544E-01 -8.587180029329E-01 -1.222426341328E+00 -1.361378558740E-01 2.832498003327E+03
 4.412654134598E+02 -7.419290369828E+02 1.049793956510E+00 -1.146404374984E+01 -1.411223391953E+03 7.493915566698E-01 -6.768637561388E-01 -2.454712639591E-01 -3.471600131038E-01 -2.879187262223E-01 1.141852720729E+00 -3.883345081814E-01 4.478233105910E-01 5.994653091236E-01 3.800482223303E-01 6.402717705914E+00 2.764561703987E+03
 -4.577263886202E+00 2.107278882490E+00 -8.322067217680E+01 -4.069104775079E+00 -3.130221921760E-01 -8.053362302067E+01 -9.598962379361E-02 -6.687906983060E-03 5.123202258731E+00 2.867460188383E-01 1.029940256550E+00 -8.910883821345E+00 5.296615062961E-02 1.915818736623E-01 -4.217289370588E-01 9.785450478027E+00 -3.934634867814E+00 1.928839706462E+02
 -1.202245340481E+03 -4.117343816340E+02 -4.661741984970E+00 1.360389929995E+00 -3.099510635889E-01 2.144514381035E-01 -1.245369862743E+03 4.466783504056E+02 4.888132396154E+00 -4.718878797363E+02 -9.641116417879E+00 -2.341151487570E+00 -5.835102501089E-01 -6.294102553922E-01 -2.465293103723E-01 -1.979524124769E+01 -3.213877915889E+01 2.329339579404E-01 2.805830510167E+03
 -4.104376001622E+02 -6.885790241778E+02 -3.785444825911E+00 -5.091773089038E+00 1.484458108060E+00 1.761461607092E-01 4.538869307961E+02 -7.432789113519E+02 -7.941328976936E+00 -1.291097318788E+01 -1.462602678385E+03 -1.707622973789E+01 6.226688489143E-01 1.798251643808E+00 8.284946400047E-01 3.707835588925E+01 5.754587450364E+01 -5.354226355857E-01 -2.781239961667E+01 2.777192915040E+03
 -2.903672613529E+00 -5.022489080712E+00 -8.109831402249E+01 1.143172817396E-01 4.041000694591E-01 -8.211432389698E+00 3.344617436721E+00 -6.565067891584E+00 -8.391045790780E+01 -1.679239536414E+00 -1.800472638791E+01 -8.314798310041E+01 3.343024659876E-01 5.866095372970E-01 -9.277219776521E+00 4.040142724481E-02 8.867812869925E-02 8.241886429639E+00 5.287404374754E-01 2.860831185461E+01 1.936060266954E+02
 1.191379504050E+00 -3.835080867334E+00 6.350960694345E-01 -1.230927542863E+03 -4.226497149808E+02 -2.252952249737E+01 2.861018530530E+00 1.136708569418E+00 8.526745621485E-01 -1.215792802166E+03 4.353840031582E+02 -5.049972193161E+00 -4.177127504963E-01 -2.128875108536E+00 -1.017119425995E+00 3.400721860008E+01 9.889335877468E-01 -4.003944239495E-02 3.932980227122E+01 3.563264177612E+00 2.943195030822E-01 2.815363628141E+03
 2.835798628553E-02 1.985521428072E-01 5.978783638846E-01 -4.248676848371E+02 -7.076875043586E+02 -1.171006713650E+01 8.258956113663E-01 6.100325888656E-01 8.451721321067E-01 4.420498103033E+02 -7.413868124371E+02 -4.342004391295E+00 3.531834935009E+00 3.153346808905E-01 -6.158142981876E-01 -6.660918085020E+01 6.294597203223E-01 -1.076929089993E+00 6.790575739884E+01 -1.271856834925E-01 3.295575400222E-01 3.297262875630E+00 2.810089335245E+03
 -4.032913960784E-01 4.084861406020E-02 -8.971780393886E+00 -2.132718457075E+01 -1.172119038792E+01 -8.377152405923E+01 2.163814694988E-02 1.523558595489E-02 4.615293006947E+00 -5.537768348975E+00 -3.829011968050E+00 -8.367856913880E+01 9.659604671579E-02 3.712327544573E-02 4.353022056314E+00 5.379543973365E-01 1.222482464435E-01 8.700537830104E+00 1.333337426632E+00 -4.984702823685E-01 8.772798303693E+00 3.061510019807E+01 3.519228333076E+01 1.967918278584E+02
 1.075721108467E+00 -2.693086228644E+00 6.534934633296E-01 1.982101291096E+00 -2.263513000731E-01 2.821295421328E-01 -1.248978346224E+03 -4.482204386640E+02 -9.889462467694E+00 1.826292537770E+00 -1.246494240264E+00 1.129668663777E-01 -5.723545410463E+02 -1.324445538771E+01 -2.688861439540E+00 -1.495623995268E+00 7.572612963825E-01 1.420022549423E-01 -2.259671167322E+01 -3.550965474903E+01 -8.008703471950E-01 -1.707919000506E+00 3.298349871069E+00 8.837742677336E-02 2.595939446389E+03
 -1.103834561624E-01 3.784713248911E-01 -4.570232621429E-01 -7.988824744795E-02 1.189132031069E-02 1.769794383013E-01 -4.642040563807E+02 -7.742419031559E+02 -1.191245645272E+01 -3.852628468759E-01 -7.722710656972E-02 3.454964402162E-01 -1.690995242445E+01 -1.812553433350E+03 -2.900846344151E+01 1.989359709888E-01 -1.023516801849E-01 -9.403818897132E-02 3.610630753832E+01 6.148819527083E+01 1.023585184364E-01 6.556163492825E-02 -9.391869843782E-01 -9.166855493301E-02 1.984918790340E+02 3.024871050988E+03
 1.631070794894E-01 2.011733626884E-01 4.698407842673E+00 -6.191705048143E-01 -2.651305444273E-01 -1.101635040769E+00 -1.092298772416E+01 -1.154455991139E+01 -7.700305981194E+01 -1.956783035337E-01 6.493200418981E-01 -1.040170856961E+01 -2.602019990089E+00 -2.906362155661E+01 -7.344696756960E+01 7.875982964114E-02 -3.047122717833E-01 3.010240306587E-01 5.363033314502E-01 -2.078923614972E-01 8.800183408576E+00 8.388698642293E-01 4.583081957170E-01 4.398200888254E-01 1.374585811348E+01 4.555733579962E+01 1.549865604352E+02
 6.958565269286E-02 1.908287321729E-01 -3.692273080559E-01 -1.065619435731E+00 4.007101690359E-01 1.860591320334E-01 -9.786982532975E-01 -3.779790660082E-01 -2.201140775536E-01 -1.239924737244E+03 -4.339929223406E+02 -1.339427107110E+01 -1.273742219776E+03 4.704093136476E+02 7.510021413913E-01 2.295165011465E-01 -1.334842834772E-01 -1.485428203634E-01 3.942816155446E+01 -7.029009551193E-01 -5.489134469507E-01 -1.937800084354E+01 -3.314999765768E+01 -4.593537043651E-01 5.091060289731E+01 -2.772541398151E-01 1.408376336262E-01 2.870236251357E+03
 -1.993611236342E+00 5.192656373247E+00 -2.849416848903E-01 -7.933134226454E+00 2.060546500376E+00 -1.134886419956E-01 -3.432874819810E+00 -1.156852690618E+00 -5.628047885369E-01 -4.340978562343E+02 -7.256213036809E+02 -1.125288929617E+01 4.610700740561E+02 -7.924730471170E+02 -7.486033884446E+00 3.412813322318E+00 -1.635306212409E+00 -3.865169214394E-01 -6.735876020905E+01 -4.863942302115E+00 6.837312743510E-02 4.176793671833E+01 6.015203867233E+01 4.878078688322E-01 8.815341536621E+01 -1.266485651064E+00 -1.801314836148E-01 -4.201038821958E+01 2.894293629224E+03
 2.487699767283E-02 -2.556780430803E-01 4.279008438183E+00 4.677997093201E-01 -3.613979519074E-01 4.362773830483E+00 1.248598147150E-01 2.103877782554E-01 -1.172829421819E+01 -1.320891844489E+01 -1.175360543177E+01 -8.604277277325E+01 1.374057020800E-02 -8.172936434281E+00 -7.741960934182E+01 -7.045482026308E-02 8.889385313715E-02 -2.540327989031E-01 -8.696666753836E-01 2.252375825524E-01 9.976419422251E+00 -8.286176451598E-02 -1.276613964530E-02 9.142393770708E+00 1.661429107780E+00 -3.409252642980E-01 1.087780290441E+01 1.515135914490E+01 4.031657445331E+01 1.878909698227E+02
 2.227469775175E-01 -7.160192628544E-01 -1.990021448096E-01 1.739287218455E-01 -1.334678711174E-01 -4.447540148491E-01 -2.652656586310E-01 -3.293828284698E-01 -1.484074788678E+00 6.228831197143E-01 1.081641077180E-01 -2.248441914687E-02 -3.212604894277E+00 -5.601850145751E-01 4.810983968296E-01 -2.272526366052E-01 2.495502973467E-01 -7.614481804240E-01 -2.107883168425E-01 1.232446209389E-01 -1.650128961161E-01 5.079600125297E-02 1.294864740783E+00 1.902929740817E-01 -3.319743135641E+00 7.890026028783E-01 -1.702246833268E-01 -8.138809665101E-01 4.289650919243E-01 9.093096667583E-01 2.867285560631E+03
 1.907993919550E-01 -3.989402307088E-01 6.247371142926E-02 9.012930861469E-01 -2.722748002158E-01 1.679269901360E-02 5.299749556821E-01 2.763543032830E-01 4.582106493700E-01 -2.007337396052E-02 -7.624421371676E-01 4.734441518534E-02 6.904370876114E-01 -1.931603628172E-01 -4.981081309970E-01 -2.956073490367E-01 8.983663757895E-02 2.430538510773E-01 -1.247658239389E-01 5.643979617983E-01 -2.049802697758E-01 -7.006685450195E-01 -4.171938482621E-01 1.350823679232E-01 4.824752067969E-01 -1.953690401811E-01 3.959631229083E-01 3.147870965634E-01 8.354906184657E-01 -2.036371280629E-01 -2.332435790200E+01 2.701207312170E+03
 1.261763630157E-01 3.204539785240E-01 3.152783237829E-01 -6.807872112812E-01 3.171175944906E-01 -1.421501291613E-01 -1.564694270803E-01 -2.002489978972E-01 1.789500637678E+00 1.358877390722E-01 4.477609213048E-01 1.174596394989E-01 3.451945883909E-02 1.396282723020E-01 -1.735965633098E+00 6.402737976996E-02 -2.763711656689E-01 5.091335684043E+00 1.406183626679E-01 -3.433689957782E-01 -6.808414845519E-01 5.531394547522E-01 6.412155515365E-01 7.388272843935E-02 2.217010862024E-01 9.454335304425E-02 1.256728227359E+00 -1.339030788590E-01 -4.288888464603E-01 -1.034528980731E+00 1.675040419653E+02 -1.972171961620E+02 2.228514815765E+02
 2.472647437265E-01 -6.529047696745E-01 -1.707440552948E-01 1.935445226918E+00 -6.963917104108E-01 -3.865962868929E-01 1.139937679504E+00 6.604017104950E-01 1.843038110810E-01 -3.253484060229E-01 -1.534933485212E+00 -1.073777844270E-01 2.318295639507E+00 -1.903463432465E-01 -4.953340206642E-01 -5.822328504645E-01 2.699865779189E-01 8.231555504761E-02 -2.239706137214E-01 1.077486456709E+00 -1.751126108492E-01 -1.392736692316E+00 -1.465835318866E+00 9.963643145535E-03 1.850825871103E+00 -6.556112058991E-01 4.808069719037E-01 8.740793750331E-01 1.395672882034E+00 -1.111082087242E-01 4.884418745823E+01 8.027357437770E+01 3.264172453611E-01 2.702674001389E+03
 1.888026350436E+00 -4.624449216097E+00 2.820474446079E-01 6.771535401129E+00 -1.644522440303E+00 1.839844821099E-01 2.902734962537E+00 9.599985728671E-01 1.880136326404E+00 1.409491144263E+00 -5.236417497157E+00 -2.027566026264E-02 -2.183373935199E+00 -2.650688235726E+00 -1.153831530634E+00 -3.101605915938E+00 1.362184654685E+00 3.503543578871E-01 -1.452748549261E+00 4.753256460431E+00 -3.229167522414E-01 -5.418325402238E+00 3.720771057305E-01 8.323660398519E-02 -3.460237464142E+00 5.680377099010E-01 7.496053253336E-01 3.568387727925E-01 7.247622815935E+00 -8.503910131671E-01 -2.552340531736E+00 -1.839393552502E+00 1.539426409944E+00 2.563745060810E+02 2.938380002419E+03
 -1.990693359966E-01 4.481624060449E-01 3.154313567705E-02 -7.564345291995E-01 3.886930884819E-01 5.444175281464E-01 -2.992008711627E-01 -1.388250810742E-01 1.223109269385E-01 -2.195731234024E-01 4.380627559007E-01 -5.865114590353E-03 4.234859052400E-01 2.477378905462E-01 7.184634021677E-01 3.834710474223E-01 -4.744372340040E-02 -3.476433595357E-02 1.770870606631E-01 -3.206923979656E-01 4.709791955810E-01 3.869592577451E-01 -1.841785920628E-01 -2.241290610042E-01 6.674846420859E-01 -4.423869392358E-02 -7.190671464827E-01 7.619594508348E-02 -5.946247891099E-01 -1.343448704436E-01 3.472175566447E+00 8.327239127512E+00 1.269714075004E+01 2.133475957528E+02 -7.133609901848E+01 1.690343444760E+02
 -2.109892091866E+01 -3.223485493363E+01 -5.254652009383E-01 3.454959212876E+01 5.056748299710E-01 4.378882706786E-01 -1.394983621744E+00 -5.586386868973E-01 -1.090801112685E+00 -5.067105097492E-01 2.619513233731E+00 7.066152393337E-02 4.305579834063E-01 1.207403782006E+00 1.881973289697E-01 -1.266543385429E+03 -4.389558546052E+02 -2.034201733101E+00 6.326494729378E-01 -2.364904722406E+00 -4.768077000898E-01 2.904796611610E+00 1.927772750396E-01 9.787765714651E-02 1.042063005505E+00 -1.154703143786E-01 -5.805668638125E-02 -3.487830748463E-01 -3.517554278951E+00 3.913596153996E-01 -1.892397437628E+01 3.530233689741E+01 -1.477208710216E+00 8.161125241850E-01 2.928888177112E+00 -4.175764628007E-01 2.788378627540E+03
 3.766802274331E+01 5.882252395614E+01 6.096357881930E-01 -6.361952180585E+01 -2.542055023857E-01 3.966608506366E-01 1.876369495037E+00 7.208099697053E-01 1.309400536852E+00 5.806009287677E-01 -3.367470493824E+00 9.331746644089E-02 -4.558650827967E-01 -1.550178111162E+00 -3.973813295780E-01 -4.458643864902E+02 -7.267789228882E+02 3.678155809823E+00 -7.966618750284E-01 2.942992806047E+00 5.598310491707E-02 -3.568259049831E+00 -3.227261826506E-01 7.215420004620E-02 -1.226516229042E+00 1.499109040385E-01 1.795526125479E-01 5.484997211496E-01 4.476017376975E+00 -5.280428190592E-01 -3.298427826167E+01 5.758638471531E+01 -4.929474660677E-01 -1.082984271016E+00 -3.621662153075E+00 4.924029445597E-01 3.237012159756E+01 2.803491116294E+03
 -1.058765983526E-01 -9.055555923932E-02 9.930687824822E+00 5.169841520002E-01 -9.821259540221E-02 9.808324414485E+00 -1.508929091269E-01 -2.273839357870E-01 -2.589769644687E-01 -2.505861528597E-01 2.842419210791E-01 -3.519656226633E-02 -1.517958477966E-01 -5.086845835927E-02 1.139453752874E+00 -4.799125789027E+00 3.752689051791E+00 -8.419311355626E+01 3.310703271593E-01 7.128416407188E-02 5.268712283418E+00 -4.044416619095E-01 -3.977609203664E-01 4.276332714783E+00 4.802607769064E-02 1.501088516891E-01 -1.033936838828E+00 1.062715434335E-01 -6.064053794994E-02 9.914603607470E-02 -5.843036039489E-01 2.594470402400E-01 7.250375351514E+00 -2.457210626029E-01 1.446795763723E-02 3.592706498918E-01 3.660989763396E+01 -4.008158399657E+01 1.941286885939E+02
 7.411008545370E-02 -5.987557790055E-02 -1.734244097313E-01 -1.857718825995E+01 -3.133927618918E+01 -2.161754763239E+00 3.672112879477E-01 1.798594808823E-01 4.693519320595E-01 -1.233236230439E-01 -2.581219450454E-01 -5.581855599611E-02 1.169074133545E+00 1.160524471471E-01 -9.442367646110E-01 -3.125497592318E-01 3.241689079560E-01 3.034966041364E-01 -4.314937206069E-02 1.751745615905E-01 -3.583188795421E-01 -1.647184909158E-01 -4.482956792920E-01 -1.158404554503E-01 1.065377846766E+00 -3.125993332716E-01 8.265148892823E-01 2.775853987289E-01 5.760852553665E-02 -3.192564977167E-01 3.919090530990E+01 -6.952304434423E+01 3.968605942118E+00 -2.350484317731E+01 4.094489879730E+01 -3.528192272885E+00 3.954273568560E+01 6.505443849719E+01 -2.028220041456E+00 2.811796930043E+03
 4.186811039618E-01 -1.190253378517E+00 1.818795339699E-01 3.587864750391E+01 5.563216145986E+01 2.522801505037E+00 6.711249699573E-01 2.230666098442E-01 3.375326418676E-01 3.122979612034E-01 -1.311822817636E+00 -9.893780990441E-03 -6.057187426750E-01 -6.890796423918E-01 2.318344537269E-02 -3.877350783721E-01 5.099578538499E-01 2.041121373216E-01 -3.175127060393E-01 1.147176702585E+00 -1.101564324881E-03 -1.403616544340E+00 -3.238509430269E-02 -2.365240479313E-01 -9.058919497620E-01 1.687585073181E-01 -9.104443434489E-02 1.074680228602E-01 1.848043228393E+00 -1.602470231786E-01 -3.836943476977E-01 9.690266347441E-02 -1.753754596093E-01 -4.276760851749E+01 7.241859683567E+01 -3.541656395824E+00 1.020942541568E-01 -1.248956710623E+00 3.342707617083E-01 -6.822498334435E+01 2.748669003925E+03
 2.051175594098E-01 -1.892080259414E+00 -1.200551513219E+00 4.315747529415E+00 -1.318229182520E+00 7.559116749361E+00 1.510630768022E+00 6.818607782608E-01 -7.220192396390E+00 -5.497686912823E-01 -2.933037207338E+00 -5.917172555900E-01 -3.774799545925E-01 -1.271439190053E+00 6.712099834323E+00 -8.578916982263E-01 6.561411818762E-01 -1.062474449180E+01 -6.731760583427E-01 2.338677068961E+00 2.274647356412E+00 -2.412275621487E+00 -2.404363473040E+00 4.084587075417E+00 -1.356895281912E+00 -3.497277087495E-02 -4.875773975021E+00 1.128122935597E+00 3.157781759217E+00 4.167458797944E+00 6.601618316920E+00 -4.162409296112E+00 3.346635888983E+00 -3.027495340443E+00 -3.433098022768E+00 1.297919475390E+01 2.535372443982E+00 -1.596817695283E+00 1.038861621958E+01 1.521875844869E+02 -7.235277674173E+01 2.293278744317E+02
 -1.449894408729E+00 3.877405498453E+00 -1.037123656441E-01 -4.986575086643E+00 1.355011551881E+00 5.033248383811E-01 -1.780331331708E+00 -4.346004855810E-01 2.480614186662E-01 -1.540796724127E+00 3.574691226511E+00 7.346063654691E-02 4.377480371629E+00 2.327387747715E+00 3.833811753704E-01 2.412373009829E+00 -1.214800380823E+00 1.168784699028E-01 1.203739626075E+00 -3.404805457570E+00 4.353766595913E-01 3.724126022104E+00 -1.419424800160E+00 -2.250245841214E-01 5.434465409449E+00 -1.047102925415E+00 -4.208666508428E-01 4.912551790889E-01 -5.436465178291E+00 -3.727996864129E-01 -1.302332248453E+03 4.570672000954E+02 -1.278570796060E+02 -5.114355763022E+02 -1.318641850842E+01 -4.582093083753E+01 -2.517820565272E+00 3.122779400925E+00 -2.567466951670E-01 -6.186170648308E-01 1.505432536943E+00 -9.339935581315E-01 2.544242415004E+03
 -1.777751160699E+00 4.637003511633E+00 1.107445730553E-01 -8.301236615645E+00 2.239557893821E+00 -7.500208381233E-03 -3.933463584431E+00 -1.732159723512E+00 -1.365186081867E+00 -5.672178760223E-01 6.467835518380E+00 1.168141009535E-01 -1.599430736743E+00 2.432247880312E+00 9.341127551089E-01 3.270711148127E+00 -1.490036038250E+00 -2.476289741378E-01 1.476704242824E+00 -5.412484917348E+00 1.565801381302E-01 6.453087127344E+00 2.061592043247E+00 -1.720534892632E-01 8.248938615662E-02 4.889940249284E-01 -7.200657446233E-01 -1.628732959862E+00 -7.882560977076E+00 5.632389456541E-01 4.906022302721E+02 -7.608253801314E+02 7.334220647105E+01 -4.758664497371E+01 -1.653432250839E+03 5.300640572043E+01 -3.529726399615E+00 4.544076342124E+00 3.324010659861E-01 6.078064387617E-01 1.620348808221E+00 3.116579373389E+00 -1.324868041750E+02 2.799295144032E+03
 -3.222388379392E-01 8.635012989001E-02 -5.122977036017E-01 5.162505516275E-01 -4.906250403181E-01 -9.460255360110E-01 1.805981777144E-01 3.110597012209E-01 -2.693359341335E+00 -4.295667972074E-01 -1.247309662536E-01 -1.689346693039E-01 7.813667248515E-01 1.598123447928E-01 1.031505191370E+00 1.648166083492E-01 1.005661021152E-01 -5.458287432454E-01 2.241254165743E-02 -1.501874411835E-01 -7.092135946932E-03 6.645460884451E-02 -1.080684923939E+00 2.674275617847E-01 4.394120383398E-01 -3.953833984371E-01 -4.082143796615E-01 3.121924547457E-01 -2.801853482271E-01 1.573812237428E+00 -1.322598696773E+02 7.391980810531E+01 -1.063485765908E+02 -4.435300722226E+01 5.079077056266E+01 -8.713689623961E+01 4.418237483132E-01 -8.554797174568E-01 4.780395913623E+00 1.170017307195E-01 -1.309964657609E-01 -1.253354451967E+00 2.860799403123E+02 -6.551041670189E+01 2.895242474987E+02
 5.546944509592E-01 -1.494650020260E+00 1.354309396624E-01 2.445394716105E+00 -4.324966361203E-01 6.820346794980E-01 1.125690532515E+00 4.564875040634E-01 1.053871002843E+00 2.302218672329E-01 -1.999105117513E+00 4.179937022528E-02 2.336089311244E-01 -8.172719194119E-01 -2.708081311750E-01 -2.059247372304E+01 3.576363029662E+01 -1.021761167209E+00 -3.968732746054E-01 1.741900761942E+00 2.077903643056E-01 -2.096154226431E+00 -4.409965736657E-01 5.622779428471E-02 -1.999571658817E-01 -3.915280479018E-02 9.296633659065E-02 4.347107182136E-01 2.573474902037E+00 -4.708841018232E-01 -1.247583038752E+03 -4.332447393397E+02 -3.571057442801E+01 -9.980653495867E-01 -1.846877114080E+00 1.151956286318E+00 -1.162743514737E+03 4.223684956879E+02 -2.933364803151E+01 -4.659127434769E+02 -1.945487237635E+01 -1.877715188377E+01 -1.958901987902E+01 -3.309358423197E+01 -1.002243280061E-01 2.766342882360E+03
 -4.035829219353E-01 8.599657969917E-01 -1.179128440606E-01 -1.161954614406E+00 1.074029404286E-01 -1.306113473781E+00 -5.145563863541E-01 -1.067537336757E-01 -7.325162977059E-01 -2.944679752320E-01 9.705226234306E-01 -1.156924109727E-01 5.481862336858E-01 5.507487356675E-01 1.759269411554E-01 -3.227160576433E+01 5.836054613197E+01 -1.986135791636E+00 2.609276999235E-01 -9.210784878371E-01 4.580285016322E-02 1.010489685385E+00 -1.364708428204E-01 -2.497341703822E-02 7.054759453079E-01 -1.953429013810E-01 -1.982245166558E-02 -7.627566488779E-02 -1.425443270291E+00 3.508047069643E-01 -4.454425720851E+02 -7.218966640691E+02 1.076670731112E+01 2.749323440903E-01 9.595806972432E-01 -7.842351073006E-01 4.229918304785E+02 -7.160178092319E+02 2.022692289334E+01 -4.016463020047E+00 -1.465903268670E+03 4.026949930584E+01 3.697038783080E+01 6.309338859192E+01 -1.242148566450E+00 1.933557638909E+01 2.782251031709E+03
 1.358290854469E-01 1.227974210732E+00 5.262727266802E+00 -2.505736202252E+00 1.299939998363E+00 -8.710174391550E+00 -6.270016952211E-01 -5.067925413560E-01 4.290868939586E+00 2.160786961848E-02 1.571342441501E+00 3.228999631194E-01 8.497991415388E-01 6.915744937073E-01 -3.923289617527E+00 1.391195162854E+00 -1.445610516503E+00 9.841717637484E+00 4.865149615943E-01 -1.225791969022E+00 -1.324094361110E+00 1.682461576048E+00 1.057890590160E+00 9.812265549710E-02 1.455926978975E+00 3.647528845736E-02 2.828240338061E+00 -2.337867957426E-01 -1.835414467216E+00 -2.496592491089E+00 -3.604545505941E+01 1.331740353366E+01 -8.106278007245E+01 1.411145214570E+00 3.414623017455E+00 -1.109744832130E+01 -3.420517701959E+01 2.326746266124E+01 -8.229874803486E+01 -1.438707635154E+01 3.554754719777E+01 -1.021544199519E+02 -5.072933986648E+00 -8.558151999051E+00 6.503087241736E+00 7.773969841257E+01 -6.492335326282E+01 2.059598333432E+02
 -9.014572359131E-01 2.129137341298E+00 -1.167261444192E-01 -3.106061593559E+00 8.258099036749E-01 -2.052388089595E-01 -1.398309630162E+00 -4.528477442003E-01 -9.491199636555E-01 -6.521609769210E-01 2.393395296569E+00 2.793808999767E-02 8.686097840555E-01 1.184786890366E+00 8.453075873777E-01 1.442950571341E+00 -6.872531158642E-01 -2.632583731057E-01 6.742169052168E-01 -2.173872594843E+00 2.932236958644E-01 2.443306494469E+00 -1.679214095989E-01 -4.161357927972E-02 1.472698581732E+00 -2.216155665683E-01 -6.308125907226E-01 -1.717198642752E-01 -3.274136792694E+00 4.529186412865E-01 4.209591928591E-01 2.376182385878E-01 2.460847652651E-01 -1.426740005206E+03 -5.047606581233E+02 -9.705869729516E+01 -1.336791923327E+00 1.719078777131E+00 2.464881072253E-02 -1.337329163907E+03 4.621330493819E+02 -8.932443038275E+01 4.751286936417E+01 -3.820096917416E+00 3.372839284581E+00 4.166347902722E+01 -8.035563349006E-01 -3.505093231275E-01 3.046756924129E+03
 5.846285984076E-01 -1.366286851419E+00 4.184037650278E-01 -1.167057352037E-01 2.737668363894E-01 4.677600022554E-01 -6.892900028276E-01 -8.297467354932E-01 1.027635405860E-01 1.536102080678E+00 2.717621895744E-01 1.484829443533E-01 -6.379260687663E+00 -1.132095217438E+00 7.760654095041E-02 -6.304637803701E-01 2.977189801302E-01 -1.030399390274E-02 -3.940284879263E-01 3.930003189613E-01 -1.335400394417E-01 -2.912698766760E-02 3.383998369878E+00 1.086474871730E-01 -6.244136914553E+00 1.721123445907E+00 -1.683640929013E-01 -1.723005762181E+00 1.126865230040E+00 8.174144676449E-02 -3.080037526673E+00 7.133226433169E-01 1.600145158025E-01 -5.034104086751E+02 -8.404092308767E+02 -1.959834172212E+01 2.270136142108E-01 -5.405707114312E-02 1.940837164617E-01 4.492486337849E+02 -7.601878907372E+02 4.607287125988E+01 -8.338290101718E+01 -4.841381437506E-01 -6.436280268918E+00 7.423191621253E+01 -6.198725778989E-02 5.476542172263E+00 3.970441557516E+01 2.533601488425E+03
 1.011517707846E-01 5.713846157277E-01 4.608641208415E-01 -1.952955341180E+00 3.218942549995E-01 5.195476214032E+00 -6.079422387539E-01 -5.118949304478E-01 2.695824562215E+00 1.633358487189E-01 9.770237407558E-01 2.256348654865E-01 -3.792825542493E-01 2.561445836892E-01 -2.017762546580E+00 2.576684929520E-01 -2.070314804149E-01 6.243722624147E-01 2.617399726933E-01 -6.640612114981E-01 -5.171270434810E-01 1.118831275307E+00 1.164612469161E+00 -4.612736171944E-02 9.061881437349E-02 3.260505853783E-01 1.361619802083E+00 -3.533715078746E-01 -1.001815557295E+00 -1.564699417356E+00 -1.868280026314E+00 2.009392846125E-01 -8.330827206420E+00 -9.492214953171E+01 -1.757297913355E+01 -7.569464584870E+01 -8.306852951979E-01 1.545316804365E+00 4.232072671457E+00 -9.341641245255E+01 4.885005169007E+01 -9.760666936641E+01 7.531985079342E+00 -7.833937116354E-01 1.091677070473E+01 1.148875899637E+00 -9.711042488470E-01 1.633351581103E+01 2.086398191584E+02 -5.617821119570E+01 1.721778417262E+02
 1.268540267048E+00 -3.090459802321E+00 1.516848757136E-01 -1.235939754505E+03 4.555193415760E+02 -2.596932444261E+01 2.029333587958E+00 7.106521027765E-01 6.175991438157E-01 8.376793119200E-01 -3.677366266546E+00 -5.999191678794E-02 -1.402429957046E+00 -1.861876438261E+00 -5.338333905889E-01 3.892783643548E+01 2.056832962063E-01 1.017425625610E+00 -1.005933796645E+00 3.197921713573E+00 -3.369630309939E-01 -2.410863268441E+01 3.712442603640E+01 -6.013238203917E-01 -2.376502120333E+00 3.658952781317E-01 4.190602595529E-01 4.072610067120E-01 4.975575339231E+00 -1.335195203084E-01 -3.341202788573E-01 -5.771988855996E-01 -2.473053475254E-01 -6.764169687233E-01 -4.542464527892E+00 9.086997464173E-02 1.834174944879E+00 -2.659359902408E+00 6.615339418605E-01 -1.124938678076E+03 -3.801264209222E+02 -4.752042542784E+01 3.515543215188E+00 4.670145340485E+00 3.197128459498E-01 3.344223251264E+01 8.441051775341E-01 2.195094336306E+00 -1.613361740990E+01 -3.403484342500E+01 -4.870851157080E-02 2.732239528858E+03
 -1.679534358128E+00 4.446707081143E+00 -8.494376063895E-02 4.616563735422E+02 -7.597024110972E+02 6.339443561720E+00 -3.405849025341E+00 -1.384366341800E+00 -1.366211697256E+00 -7.696931254491E-01 5.789383763427E+00 1.018236674134E-01 -3.250543825853E-01 2.409529073397E+00 9.043971634734E-01 6.971166707133E+01 -2.062298972258E+00 9.297928414945E-01 1.363126444321E+00 -4.956347794078E+00 2.313930392106E-01 -2.774189611485E+01 6.206543908079E+01 -5.168504700968E-01 1.143724829106E+00 9.678770130468E-02 -6.399946121410E-01 -1.200683393908E+00 -7.318612919512E+00 6.914321328437E-01 -1.273988059309E-01 1.060720064239E+00 -6.971551602687E-01 2.004881613157E+00 6.130182091685E+00 -4.642591924865E-01 -2.994935554779E+00 3.927044686861E+00 2.358225682326E-01 -3.805395110944E+02 -6.567394262339E+02 -8.991002414697E+00 -4.264702316184E+00 -8.039842050235E+00 6.834958113905E-01 -6.075060013230E+01 -7.967750768546E-01 -6.180655614852E+00 3.010811988415E+01 5.888450702478E+01 -1.433754709753E+00 -2.358123139717E+01 2.826463380145E+03
 -1.234723161933E-01 2.763171493716E-01 4.645905728269E+00 -2.713240449752E+01 6.759368601710E+00 -8.510995746150E+01 3.282539038711E-03 8.367330908468E-02 -3.288209708784E-01 8.080761850245E-02 7.466635509211E-02 4.742142938602E+00 -3.849263777581E-02 4.910273647983E-02 -2.465809503738E-01 1.396469148829E+00 -2.410055177107E-01 8.869838967613E+00 -3.992907372594E-02 -2.956472653759E-01 -2.739158178231E-01 -5.700872200659E-01 5.859596752827E-01 1.003045844668E+01 -1.254262764449E-01 -4.912644804447E-02 2.926854456567E-01 -6.649609441179E-02 -1.364847307467E-01 2.122211924082E-01 3.484953216802E-01 4.272475814502E-01 4.093491038376E+00 -5.560216978573E-01 1.496717408368E-01 5.038384895700E+00 -4.847019872433E-01 -7.276746609094E-01 -8.998170453713E+00 -4.394859203105E+01 -1.425543754912E+01 -8.166495279474E+01 -8.518906608551E-02 -6.180031404966E-01 6.562026971570E-01 2.719834521611E+00 8.913877132404E-01 7.454917084491E+00 -2.568569510154E+00 -3.442892239462E+00 9.918158168780E+00 8.111765275190E+01 3.996756972226E+01 1.916897138062E+02