#BIOSYM hessian 1
@Type: Hessian Update
@Units
 distance: 	A
 energy: 	Kcal/Mol
#header
@natom 69

#label
C1      C2      C3      C4      C5      C6      C7      C8      C9      C10     C11     C12     C13     C14     C15     C16     C17     C18     C19     C20     C21     C22     C23     H24     C25     C26     C27     C28     C29     C30     C31     C32     C33     C34     C35     C36     C37     C38     C39     C40     C41     C42     C43     C44     C45     C46     C47     C48     C49     H50     H51     H52     H53     H54     C55     H56     H57     H58     H59     H60     H61     H62     H63     H64     H65     H66     O67     O68     H69

#element
C  C  C  C  C  C  C  C  C  C  C  C  C  C  C  C  C  C  C  C  C  C  C  H  C  C  C  C  C  C  C  C  C  C  C  C  C  C  C  C  C  C  C  C  C  C  C  C  C  H  H  H  H  H  C  H  H  H  H  H  H  H  H  H  H  H  O  O  H 

#matrix
207
 2.786389244462E+03
 -2.047730228461E+01 2.815595339068E+03
 0.000000000000E+00 0.000000000000E+00 0.000000000000E+00
 3.977004714502E+01 6.712150146741E+01 0.000000000000E+00 2.792433085062E+03
 -4.141512535845E-01 -7.194132356411E-01 0.000000000000E+00 -2.593576915202E+01 2.768833976109E+03
 0.000000000000E+00 0.000000000000E+00 0.000000000000E+00 0.000000000000E+00 0.000000000000E+00 0.000000000000E+00
 -1.973934190424E+01 3.595025416637E+01 0.000000000000E+00 -3.514696506827E-01 4.334539342340E-01 0.000000000000E+00 2.812323977606E+03
 -3.282149069899E+01 6.057669401531E+01 0.000000000000E+00 -1.252917924532E-01 -7.468571148912E-02 0.000000000000E+00 -1.651982415916E+01 2.808547643742E+03
 0.000000000000E+00 0.000000000000E+00 0.000000000000E+00 0.000000000000E+00 0.000000000000E+00 0.000000000000E+00 0.000000000000E+00 0.000000000000E+00 0.000000000000E+00
 3.802337005591E+01 -6.824716668851E+01 0.000000000000E+00 -1.954239165682E+01 3.451869444126E+01 0.000000000000E+00 4.150400863861E+01 7.217622616516E+01 0.000000000000E+00 2.789880754205E+03
 -6.397244235812E-02 3.146610777694E-01 0.000000000000E+00 -3.340979012808E+01 5.906582243038E+01 0.000000000000E+00 -5.899684645352E-01 -8.468907023519E-01 0.000000000000E+00 -2.818182263604E+01 2.836483514453E+03
 0.000000000000E+00 0.000000000000E+00 0.000000000000E+00 0.000000000000E+00 0.000000000000E+00 0.000000000000E+00 0.000000000000E+00 0.000000000000E+00 0.000000000000E+00 0.000000000000E+00 0.000000000000E+00 0.000000000000E+00
 1.070616037114E-01 -1.019040446955E-01 0.000000000000E+00 -7.182788553771E-03 4.317882144086E-02 0.000000000000E+00 4.212172129585E+01 -7.251730797203E+01 0.000000000000E+00 -2.131640656606E+01 3.712931578450E+01 0.000000000000E+00 2.643361553070E+03
 6.718976419869E-02 1.844237194428E-01 0.000000000000E+00 -6.302695484237E-02 -4.056700476552E-02 0.000000000000E+00 1.063015752864E+00 -1.473534861732E+00 0.000000000000E+00 -3.677528294641E+01 6.315490646489E+01 0.000000000000E+00 -2.332115920840E+02 2.898078845623E+03
 0.000000000000E+00 0.000000000000E+00 0.000000000000E+00 0.000000000000E+00 0.000000000000E+00 0.000000000000E+00 0.000000000000E+00 0.000000000000E+00 0.000000000000E+00 0.000000000000E+00 0.000000000000E+00 0.000000000000E+00 0.000000000000E+00 0.000000000000E+00 0.000000000000E+00
 -1.230129045632E+03 4.480201027543E+02 0.000000000000E+00 -4.650498698289E+02 -7.530249681844E+00 0.000000000000E+00 -1.117074278906E-01 -1.605620734864E-01 0.000000000000E+00 2.528237249052E-01 3.906656718830E-01 0.000000000000E+00 -2.093238183188E-02 1.605738592993E-01 0.000000000000E+00 2.823943435536E+03
 4.423385690760E+02 -7.404665870935E+02 0.000000000000E+00 -6.508732440951E+00 -1.433115592632E+03 0.000000000000E+00 -4.698226821473E-01 -5.282915019023E-01 0.000000000000E+00 3.902331351200E-01 -3.020811452826E-01 0.000000000000E+00 -3.420239547713E-02 -5.561636242260E-02 0.000000000000E+00 -3.584876083030E+00 2.779449728746E+03
 0.000000000000E+00 0.000000000000E+00 0.000000000000E+00 0.000000000000E+00 0.000000000000E+00 0.000000000000E+00 0.000000000000E+00 0.000000000000E+00 0.000000000000E+00 0.000000000000E+00 0.000000000000E+00 0.000000000000E+00 0.000000000000E+00 0.000000000000E+00 0.000000000000E+00 0.000000000000E+00 0.000000000000E+00 0.000000000000E+00
 -1.194893868962E+03 -4.116196662795E+02 0.000000000000E+00 -1.523623220352E-01 5.205990843289E-01 0.000000000000E+00 -1.264494237043E+03 4.481480599056E+02 0.000000000000E+00 -4.855997076967E+02 -5.775470801659E+00 0.000000000000E+00 2.785743949183E-01 2.298995562806E-01 0.000000000000E+00 -1.949791227449E+01 -3.328592165400E+01 0.000000000000E+00 2.826067880790E+03
 -4.115374619827E+02 -6.994151382822E+02 0.000000000000E+00 5.904849491660E-01 4.082262364547E-01 0.000000000000E+00 4.484074469492E+02 -7.422372247929E+02 0.000000000000E+00 -8.310894503019E+00 -1.512728252717E+03 0.000000000000E+00 4.526417899062E-02 -2.197767404590E-01 0.000000000000E+00 3.387556300461E+01 5.891784002683E+01 0.000000000000E+00 -3.218461080674E+01 2.836503783964E+03
 0.000000000000E+00 0.000000000000E+00 0.000000000000E+00 0.000000000000E+00 0.000000000000E+00 0.000000000000E+00 0.000000000000E+00 0.000000000000E+00 0.000000000000E+00 0.000000000000E+00 0.000000000000E+00 0.000000000000E+00 0.000000000000E+00 0.000000000000E+00 0.000000000000E+00 0.000000000000E+00 0.000000000000E+00 0.000000000000E+00 0.000000000000E+00 0.000000000000E+00 0.000000000000E+00
 -1.103340841684E-01 -1.351321174335E-01 0.000000000000E+00 -1.222258097981E+03 -4.187070559196E+02 0.000000000000E+00 8.304331923566E-01 1.858340739028E-01 0.000000000000E+00 -1.224715042299E+03 4.413776352839E+02 0.000000000000E+00 2.600346258018E-02 5.270450597619E-02 0.000000000000E+00 3.704569366160E+01 -1.394464719926E-01 0.000000000000E+00 4.218746502807E+01 -1.078174484488E-01 0.000000000000E+00 2.808292728709E+03
 5.819693188333E-02 1.252034006555E-01 0.000000000000E+00 -4.210238225639E+02 -7.048396452942E+02 0.000000000000E+00 -1.253857855879E-01 4.476909545379E-02 0.000000000000E+00 4.402122508011E+02 -7.382688620948E+02 0.000000000000E+00 4.805709130692E-02 1.414531756458E-02 0.000000000000E+00 -6.685848628014E+01 5.197352816074E-01 0.000000000000E+00 7.020685700895E+01 -7.206551328930E-01 0.000000000000E+00 -1.159124891361E+00 2.809226962851E+03
 0.000000000000E+00 0.000000000000E+00 0.000000000000E+00 0.000000000000E+00 0.000000000000E+00 0.000000000000E+00 0.000000000000E+00 0.000000000000E+00 0.000000000000E+00 0.000000000000E+00 0.000000000000E+00 0.000000000000E+00 0.000000000000E+00 0.000000000000E+00 0.000000000000E+00 0.000000000000E+00 0.000000000000E+00 0.000000000000E+00 0.000000000000E+00 0.000000000000E+00 0.000000000000E+00 0.000000000000E+00 0.000000000000E+00 0.000000000000E+00
 8.686907477021E-01 -2.201629304791E-01 0.000000000000E+00 9.713828209199E-01 -3.769223075869E-01 0.000000000000E+00 -1.190788702092E+03 -4.125420635417E+02 0.000000000000E+00 -6.311269027569E-02 1.504314850066E-01 0.000000000000E+00 -5.241523950301E+02 2.777547975650E+01 0.000000000000E+00 -6.940506833774E-01 8.335982306009E-01 0.000000000000E+00 -2.288602152402E+01 -3.351318911099E+01 0.000000000000E+00 -1.059958564566E+00 -5.169351933364E-01 0.000000000000E+00 2.776906398071E+03
 -4.716235223269E-01 2.015678269618E-01 0.000000000000E+00 -4.410190009371E-01 2.905238936000E-01 0.000000000000E+00 -4.210808103817E+02 -6.966984892827E+02 0.000000000000E+00 8.772219546644E-01 1.227878081066E+00 0.000000000000E+00 2.845098775312E+01 -1.637375720591E+03 0.000000000000E+00 1.993690921215E-01 -4.992068181976E-01 0.000000000000E+00 3.529086639817E+01 5.921431976738E+01 0.000000000000E+00 6.444447947416E-01 -3.032392838968E-02 0.000000000000E+00 3.397712013135E+00 3.032886852453E+03
 0.000000000000E+00 0.000000000000E+00 0.000000000000E+00 0.000000000000E+00 0.000000000000E+00 0.000000000000E+00 0.000000000000E+00 0.000000000000E+00 0.000000000000E+00 0.000000000000E+00 0.000000000000E+00 0.000000000000E+00 0.000000000000E+00 0.000000000000E+00 0.000000000000E+00 0.000000000000E+00 0.000000000000E+00 0.000000000000E+00 0.000000000000E+00 0.000000000000E+00 0.000000000000E+00 0.000000000000E+00 0.000000000000E+00 0.000000000000E+00 0.000000000000E+00 0.000000000000E+00 0.000000000000E+00
 4.984804651840E-01 -2.924184853176E-01 0.000000000000E+00 1.976368878020E-01 1.003595854131E-01 0.000000000000E+00 -6.973899564638E-01 -1.117289447802E+00 0.000000000000E+00 -1.196898868936E+03 -4.151127442037E+02 0.000000000000E+00 -1.345598249545E+03 4.905010676910E+02 0.000000000000E+00 -1.201415018514E-01 1.555886737672E-01 0.000000000000E+00 3.794223113923E+01 1.779420085509E+00 0.000000000000E+00 -1.934460067167E+01 -3.263821079592E+01 0.000000000000E+00 4.887597868344E+01 5.765789223791E-01 0.000000000000E+00 2.892450955223E+03
 1.489534760502E-01 -4.463162801603E-03 0.000000000000E+00 -1.490723259999E-01 1.619906707686E-03 0.000000000000E+00 4.627495836173E-01 1.090792163735E+00 0.000000000000E+00 -4.063234034714E+02 -7.061264006207E+02 0.000000000000E+00 4.895617725944E+02 -8.129254071531E+02 0.000000000000E+00 2.406973689830E-01 -4.308919626382E-02 0.000000000000E+00 -6.859760187338E+01 3.615703021423E-01 0.000000000000E+00 3.468078758399E+01 5.846996590591E+01 0.000000000000E+00 8.132580317242E+01 4.065700747562E-01 0.000000000000E+00 -8.956276143339E+01 2.837797489274E+03
 0.000000000000E+00 0.000000000000E+00 0.000000000000E+00 0.000000000000E+00 0.000000000000E+00 0.000000000000E+00 0.000000000000E+00 0.000000000000E+00 0.000000000000E+00 0.000000000000E+00 0.000000000000E+00 0.000000000000E+00 0.000000000000E+00 0.000000000000E+00 0.000000000000E+00 0.000000000000E+00 0.000000000000E+00 0.000000000000E+00 0.000000000000E+00 0.000000000000E+00 0.000000000000E+00 0.000000000000E+00 0.000000000000E+00 0.000000000000E+00 0.000000000000E+00 0.000000000000E+00 0.000000000000E+00 0.000000000000E+00 0.000000000000E+00 0.000000000000E+00
 -2.167763235392E-02 4.940204876150E-02 0.000000000000E+00 2.611209952233E-02 2.590008858518E-02 0.000000000000E+00 -2.860294759807E-02 1.213084968889E-01 0.000000000000E+00 8.561682694279E-03 4.227812207351E-03 0.000000000000E+00 -1.438761788277E-02 -1.142515395524E-02 0.000000000000E+00 -3.298220466669E-02 -3.098497005830E-02 0.000000000000E+00 -1.353407403782E-02 -8.565428223779E-05 0.000000000000E+00 4.112786148482E-03 8.264214876061E-03 0.000000000000E+00 5.728231252230E-01 -2.987667024239E-01 0.000000000000E+00 3.666552849715E-02 -8.778862287523E-02 0.000000000000E+00 2.810120401478E+03
 1.339340292119E-02 5.882876885805E-02 0.000000000000E+00 -3.017361784339E-02 2.904056517063E-02 0.000000000000E+00 -5.935625544774E-02 9.749124638410E-02 0.000000000000E+00 2.267212547804E-02 4.461449367664E-02 0.000000000000E+00 1.896450460518E-02 2.260224484622E-02 0.000000000000E+00 5.870590582332E-02 -7.170325641576E-02 0.000000000000E+00 2.583768874035E-04 -8.183390305292E-02 0.000000000000E+00 -2.216008572111E-02 1.314088079600E-02 0.000000000000E+00 -3.859890306072E-02 -5.201688151907E-03 0.000000000000E+00 8.161188550271E-02 6.030655895866E-03 0.000000000000E+00 2.664247936696E+00 2.800470046951E+03
 0.000000000000E+00 0.000000000000E+00 0.000000000000E+00 0.000000000000E+00 0.000000000000E+00 0.000000000000E+00 0.000000000000E+00 0.000000000000E+00 0.000000000000E+00 0.000000000000E+00 0.000000000000E+00 0.000000000000E+00 0.000000000000E+00 0.000000000000E+00 0.000000000000E+00 0.000000000000E+00 0.000000000000E+00 0.000000000000E+00 0.000000000000E+00 0.000000000000E+00 0.000000000000E+00 0.000000000000E+00 0.000000000000E+00 0.000000000000E+00 0.000000000000E+00 0.000000000000E+00 0.000000000000E+00 0.000000000000E+00 0.000000000000E+00 0.000000000000E+00 0.000000000000E+00 0.000000000000E+00 0.000000000000E+00
 1.673976354553E-02 -3.304455590675E-02 0.000000000000E+00 -8.944636872482E-03 -2.986688261465E-02 0.000000000000E+00 7.451988470472E-02 2.211247933730E-02 0.000000000000E+00 -2.952522947166E-02 -3.483340749291E-02 0.000000000000E+00 -6.699231921072E-03 -4.669833540639E-02 0.000000000000E+00 -4.509809184949E-03 5.826640755041E-02 0.000000000000E+00 1.887009425642E-02 5.317568419000E-02 0.000000000000E+00 6.896350467651E-03 -4.657120404796E-03 0.000000000000E+00 1.884492182938E-01 -5.995787203632E-02 0.000000000000E+00 -7.471447102674E-02 -6.418481352453E-02 0.000000000000E+00 4.164058106423E+01 7.168097525068E+01 0.000000000000E+00 2.783264235895E+03
 6.318621457900E-03 9.496595508867E-04 0.000000000000E+00 -2.732838546292E-03 1.251051520366E-03 0.000000000000E+00 -9.618620775066E-03 1.351165490261E-02 0.000000000000E+00 9.797705109157E-03 8.759824101806E-03 0.000000000000E+00 2.163417878210E-02 -3.579014397168E-02 0.000000000000E+00 -1.577237747967E-03 7.751274239663E-03 0.000000000000E+00 -1.035411856829E-03 2.362278132790E-03 0.000000000000E+00 7.776809207136E-05 3.542360563406E-03 0.000000000000E+00 -5.355498835404E-02 2.916280064130E-02 0.000000000000E+00 7.671818628514E-03 1.115393863917E-02 0.000000000000E+00 -1.048544321541E+00 -1.813101524156E+00 0.000000000000E+00 2.780599418495E+02 2.858691049273E+03
 0.000000000000E+00 0.000000000000E+00 0.000000000000E+00 0.000000000000E+00 0.000000000000E+00 0.000000000000E+00 0.000000000000E+00 0.000000000000E+00 0.000000000000E+00 0.000000000000E+00 0.000000000000E+00 0.000000000000E+00 0.000000000000E+00 0.000000000000E+00 0.000000000000E+00 0.000000000000E+00 0.000000000000E+00 0.000000000000E+00 0.000000000000E+00 0.000000000000E+00 0.000000000000E+00 0.000000000000E+00 0.000000000000E+00 0.000000000000E+00 0.000000000000E+00 0.000000000000E+00 0.000000000000E+00 0.000000000000E+00 0.000000000000E+00 0.000000000000E+00 0.000000000000E+00 0.000000000000E+00 0.000000000000E+00 0.000000000000E+00 0.000000000000E+00 0.000000000000E+00
 -2.028447200636E+01 -3.391598166344E+01 0.000000000000E+00 3.820141260506E+01 -2.171753344524E-01 0.000000000000E+00 5.110814364629E-02 2.508246617601E-01 0.000000000000E+00 7.483247065027E-02 7.742620386137E-03 0.000000000000E+00 5.043694141017E-02 -3.226840710761E-02 0.000000000000E+00 -1.247935838424E+03 -4.332814755841E+02 0.000000000000E+00 -1.700304826605E-01 -8.226172044211E-02 0.000000000000E+00 -2.891807788173E-02 4.308181526823E-02 0.000000000000E+00 5.432402831189E-03 -1.573635623158E-02 0.000000000000E+00 1.958991768614E-01 2.885691821374E-02 0.000000000000E+00 -1.942359842671E+01 3.424778115190E+01 0.000000000000E+00 -1.904414000282E-02 2.417352306356E-02 0.000000000000E+00 2.777673474207E+03
 3.620500761707E+01 6.092258110010E+01 0.000000000000E+00 -6.793528195994E+01 4.895925857866E-01 0.000000000000E+00 2.465686869156E-01 4.461455322860E-01 0.000000000000E+00 -3.498211880452E-02 8.796296123425E-02 0.000000000000E+00 4.527964031214E-02 -7.758892561224E-02 0.000000000000E+00 -4.377114272074E+02 -7.223314881046E+02 0.000000000000E+00 2.025969126063E-02 -1.743707063646E-01 0.000000000000E+00 -7.447822237034E-02 2.629490274002E-02 0.000000000000E+00 -2.711377384677E-01 1.938473888737E-01 0.000000000000E+00 -6.229545104480E-02 -1.319613932169E-01 0.000000000000E+00 -3.233025482537E+01 5.712384044522E+01 0.000000000000E+00 -5.048923077301E-02 -4.127454835978E-03 0.000000000000E+00 1.877308420279E+01 2.804760492910E+03
 0.000000000000E+00 0.000000000000E+00 0.000000000000E+00 0.000000000000E+00 0.000000000000E+00 0.000000000000E+00 0.000000000000E+00 0.000000000000E+00 0.000000000000E+00 0.000000000000E+00 0.000000000000E+00 0.000000000000E+00 0.000000000000E+00 0.000000000000E+00 0.000000000000E+00 0.000000000000E+00 0.000000000000E+00 0.000000000000E+00 0.000000000000E+00 0.000000000000E+00 0.000000000000E+00 0.000000000000E+00 0.000000000000E+00 0.000000000000E+00 0.000000000000E+00 0.000000000000E+00 0.000000000000E+00 0.000000000000E+00 0.000000000000E+00 0.000000000000E+00 0.000000000000E+00 0.000000000000E+00 0.000000000000E+00 0.000000000000E+00 0.000000000000E+00 0.000000000000E+00 0.000000000000E+00 0.000000000000E+00 0.000000000000E+00
 -6.085536337610E-02 -1.086886555926E-01 0.000000000000E+00 -1.889198951575E+01 -3.142586905982E+01 0.000000000000E+00 4.836440379641E-02 -8.939690106027E-03 0.000000000000E+00 -2.299307574124E-02 -2.991249716429E-02 0.000000000000E+00 -3.329372022759E-02 -9.017906886286E-02 0.000000000000E+00 -9.394534744903E-02 1.986859198335E-01 0.000000000000E+00 -4.111085935000E-03 1.913934427862E-01 0.000000000000E+00 1.969417872660E-02 -2.215986787726E-03 0.000000000000E+00 4.272175694425E-01 -1.539890269075E-01 0.000000000000E+00 -1.038620083075E-01 -1.380671052101E-01 0.000000000000E+00 3.937564238076E+01 -6.937902114353E+01 0.000000000000E+00 -2.295442520370E+01 4.038069899573E+01 0.000000000000E+00 4.007186394269E+01 6.686024740481E+01 0.000000000000E+00 2.772412196867E+03
 1.858317968825E-01 -3.417535982869E-02 0.000000000000E+00 3.339085463818E+01 5.566078240201E+01 0.000000000000E+00 1.652379164561E-01 3.839844261056E-02 0.000000000000E+00 -9.891517908934E-02 -5.650601119931E-02 0.000000000000E+00 3.784666721517E-03 -2.495600904333E-03 0.000000000000E+00 2.606272138816E-01 1.476156783898E-01 0.000000000000E+00 -4.032858106283E-02 1.854023317225E-01 0.000000000000E+00 -6.052023144228E-03 -1.217991982353E-02 0.000000000000E+00 1.348574800361E-02 3.724074487449E-02 0.000000000000E+00 1.444961489981E-01 -5.161952420580E-02 0.000000000000E+00 -1.100623333128E-01 1.686935308670E-01 0.000000000000E+00 -4.211560765857E+01 7.399597575818E+01 0.000000000000E+00 -1.959004552523E-01 -3.031279627009E-01 0.000000000000E+00 -3.843617584943E+01 2.757006305598E+03
 0.000000000000E+00 0.000000000000E+00 0.000000000000E+00 0.000000000000E+00 0.000000000000E+00 0.000000000000E+00 0.000000000000E+00 0.000000000000E+00 0.000000000000E+00 0.000000000000E+00 0.000000000000E+00 0.000000000000E+00 0.000000000000E+00 0.000000000000E+00 0.000000000000E+00 0.000000000000E+00 0.000000000000E+00 0.000000000000E+00 0.000000000000E+00 0.000000000000E+00 0.000000000000E+00 0.000000000000E+00 0.000000000000E+00 0.000000000000E+00 0.000000000000E+00 0.000000000000E+00 0.000000000000E+00 0.000000000000E+00 0.000000000000E+00 0.000000000000E+00 0.000000000000E+00 0.000000000000E+00 0.000000000000E+00 0.000000000000E+00 0.000000000000E+00 0.000000000000E+00 0.000000000000E+00 0.000000000000E+00 0.000000000000E+00 0.000000000000E+00 0.000000000000E+00 0.000000000000E+00
 -1.982171854316E-02 1.009872130449E-02 0.000000000000E+00 5.923610181162E-03 1.662369167702E-02 0.000000000000E+00 -4.360640300740E-02 -1.002307332475E-01 0.000000000000E+00 2.671448206215E-02 2.376837295897E-02 0.000000000000E+00 1.201464900382E-02 3.791618560236E-02 0.000000000000E+00 -4.779840916826E-04 -3.678585103967E-02 0.000000000000E+00 -1.427018839693E-02 -5.305068939962E-02 0.000000000000E+00 -1.228865194241E-03 -1.525832942496E-03 0.000000000000E+00 -4.891397868454E-01 2.054487547296E-01 0.000000000000E+00 1.978006912014E-02 1.185187071349E-01 0.000000000000E+00 -1.233644701393E+03 4.344307884461E+02 0.000000000000E+00 -5.072286130006E+02 -1.773240244842E+01 0.000000000000E+00 -1.852247491889E-02 4.382459467352E-02 0.000000000000E+00 4.852003456365E-02 8.148519042003E-02 0.000000000000E+00 2.843000729962E+03
 2.329800031350E-02 -2.870821790582E-02 0.000000000000E+00 -1.031139832121E-02 -3.537817531026E-02 0.000000000000E+00 6.142652706458E-02 -6.891137587752E-02 0.000000000000E+00 -3.748819820651E-02 -4.113613836200E-02 0.000000000000E+00 -2.375242061405E-02 1.812356300960E-02 0.000000000000E+00 -7.714981282576E-03 5.001639889619E-02 0.000000000000E+00 1.139188498213E-02 4.490729180683E-02 0.000000000000E+00 1.306776867779E-02 -1.033872057905E-02 0.000000000000E+00 -2.793229715248E-03 1.212277235843E-02 0.000000000000E+00 -3.953398057426E-02 8.008881956524E-03 0.000000000000E+00 4.365166769276E+02 -7.324252988351E+02 0.000000000000E+00 -2.771707766925E+01 -1.541445143129E+03 0.000000000000E+00 -2.350350812145E-02 -3.416747052613E-02 0.000000000000E+00 6.961923893424E-02 -2.655484575861E-02 0.000000000000E+00 2.936876193141E+01 2.892785469261E+03
 0.000000000000E+00 0.000000000000E+00 0.000000000000E+00 0.000000000000E+00 0.000000000000E+00 0.000000000000E+00 0.000000000000E+00 0.000000000000E+00 0.000000000000E+00 0.000000000000E+00 0.000000000000E+00 0.000000000000E+00 0.000000000000E+00 0.000000000000E+00 0.000000000000E+00 0.000000000000E+00 0.000000000000E+00 0.000000000000E+00 0.000000000000E+00 0.000000000000E+00 0.000000000000E+00 0.000000000000E+00 0.000000000000E+00 0.000000000000E+00 0.000000000000E+00 0.000000000000E+00 0.000000000000E+00 0.000000000000E+00 0.000000000000E+00 0.000000000000E+00 0.000000000000E+00 0.000000000000E+00 0.000000000000E+00 0.000000000000E+00 0.000000000000E+00 0.000000000000E+00 0.000000000000E+00 0.000000000000E+00 0.000000000000E+00 0.000000000000E+00 0.000000000000E+00 0.000000000000E+00 0.000000000000E+00 0.000000000000E+00 0.000000000000E+00
 -2.805990630275E-02 1.010649480627E-03 0.000000000000E+00 8.387557589617E-02 9.526135886843E-02 0.000000000000E+00 -4.530990810590E-02 -5.879660299981E-02 0.000000000000E+00 3.018052878997E-02 8.411343240060E-02 0.000000000000E+00 1.494053006041E-02 -1.250578310583E-02 0.000000000000E+00 -1.963920844770E+01 3.462914517636E+01 0.000000000000E+00 3.022266113043E-02 -7.381240193798E-02 0.000000000000E+00 -2.092670047501E-02 7.263663550682E-03 0.000000000000E+00 -4.828685386436E-01 2.156051579897E-01 0.000000000000E+00 -5.184413006870E-02 6.994808564726E-02 0.000000000000E+00 -1.222840584674E+03 -4.248320542535E+02 0.000000000000E+00 -3.984873665992E-02 5.992279856701E-02 0.000000000000E+00 -1.172568878870E+03 4.244538482593E+02 0.000000000000E+00 -4.721916094042E+02 -9.606334622616E+00 0.000000000000E+00 -1.966707336751E+01 -3.392155231791E+01 0.000000000000E+00 2.752449545566E+03
 -9.183516176173E-02 -1.243579406803E-01 0.000000000000E+00 1.738897314126E-01 -1.003355010754E-01 0.000000000000E+00 -4.147902424113E-02 -3.208950007321E-01 0.000000000000E+00 -5.656216710016E-03 -5.059303107765E-02 0.000000000000E+00 -2.450082810517E-02 -5.102459194532E-03 0.000000000000E+00 -3.304172179447E+01 5.831513573399E+01 0.000000000000E+00 3.277935198075E-02 9.935831836919E-02 0.000000000000E+00 4.955491086239E-02 -1.602696634458E-02 0.000000000000E+00 -1.686006058527E-01 5.265343474050E-02 0.000000000000E+00 -1.374778137031E-01 1.118720009474E-01 0.000000000000E+00 -4.281415846419E+02 -7.124249643572E+02 0.000000000000E+00 9.196554152168E-02 4.740992209116E-02 0.000000000000E+00 4.257116707560E+02 -7.167433588028E+02 0.000000000000E+00 -2.079317667674E-01 -1.497269974289E+03 0.000000000000E+00 3.450617897499E+01 5.960768381632E+01 0.000000000000E+00 3.029474805310E+00 2.808604094523E+03
 0.000000000000E+00 0.000000000000E+00 0.000000000000E+00 0.000000000000E+00 0.000000000000E+00 0.000000000000E+00 0.000000000000E+00 0.000000000000E+00 0.000000000000E+00 0.000000000000E+00 0.000000000000E+00 0.000000000000E+00 0.000000000000E+00 0.000000000000E+00 0.000000000000E+00 0.000000000000E+00 0.000000000000E+00 0.000000000000E+00 0.000000000000E+00 0.000000000000E+00 0.000000000000E+00 0.000000000000E+00 0.000000000000E+00 0.000000000000E+00 0.000000000000E+00 0.000000000000E+00 0.000000000000E+00 0.000000000000E+00 0.000000000000E+00 0.000000000000E+00 0.000000000000E+00 0.000000000000E+00 0.000000000000E+00 0.000000000000E+00 0.000000000000E+00 0.000000000000E+00 0.000000000000E+00 0.000000000000E+00 0.000000000000E+00 0.000000000000E+00 0.000000000000E+00 0.000000000000E+00 0.000000000000E+00 0.000000000000E+00 0.000000000000E+00 0.000000000000E+00 0.000000000000E+00 0.000000000000E+00
 -2.114118888926E-02 4.398597063064E-02 0.000000000000E+00 1.830741871419E-02 1.637674119145E-02 0.000000000000E+00 -4.735368254959E-02 3.919201032025E-02 0.000000000000E+00 3.643045500065E-02 1.955220077955E-02 0.000000000000E+00 -1.630903918231E-04 5.151872401885E-02 0.000000000000E+00 -5.227972812277E-03 -5.316088660601E-02 0.000000000000E+00 -1.876709424832E-02 -7.914939164744E-02 0.000000000000E+00 -1.455514243611E-02 4.849005559685E-04 0.000000000000E+00 -9.539555856462E-02 4.046089612549E-02 0.000000000000E+00 3.657491936034E-02 1.151665749095E-02 0.000000000000E+00 9.566523544550E-03 4.855053740324E-03 0.000000000000E+00 -1.506566970421E+03 -5.279960417537E+02 0.000000000000E+00 2.818923048598E-02 3.742565321560E-02 0.000000000000E+00 -1.277169440685E+03 4.355435619258E+02 0.000000000000E+00 4.874650917410E+01 -1.218437528372E+00 0.000000000000E+00 3.939623577344E+01 -1.118183186683E-01 0.000000000000E+00 3.073842279919E+03
 -4.810600353644E-02 2.285679376848E-02 0.000000000000E+00 5.771249545432E-03 3.063306807864E-02 0.000000000000E+00 -7.536234740184E-02 8.022911438080E-02 0.000000000000E+00 3.975422774287E-02 3.652083680983E-02 0.000000000000E+00 1.616295680751E-02 -1.623693325364E-02 0.000000000000E+00 1.440191962333E-02 -5.399639967639E-02 0.000000000000E+00 1.506912629424E-02 -8.732308430725E-02 0.000000000000E+00 -1.101241200498E-02 8.152129130519E-03 0.000000000000E+00 3.436997521972E-02 -2.524777164734E-02 0.000000000000E+00 3.680172101347E-03 -7.109356871767E-03 0.000000000000E+00 6.483012496214E-03 8.621584690994E-03 0.000000000000E+00 -5.377309084001E+02 -8.654047224633E+02 0.000000000000E+00 1.745821596339E-03 2.368162655811E-02 0.000000000000E+00 4.204174346471E+02 -7.262257451497E+02 0.000000000000E+00 -8.588506428656E+01 2.165366584161E+00 0.000000000000E+00 7.200839939798E+01 -2.221336644971E-01 0.000000000000E+00 9.034090271410E+01 2.539139981059E+03
 0.000000000000E+00 0.000000000000E+00 0.000000000000E+00 0.000000000000E+00 0.000000000000E+00 0.000000000000E+00 0.000000000000E+00 0.000000000000E+00 0.000000000000E+00 0.000000000000E+00 0.000000000000E+00 0.000000000000E+00 0.000000000000E+00 0.000000000000E+00 0.000000000000E+00 0.000000000000E+00 0.000000000000E+00 0.000000000000E+00 0.000000000000E+00 0.000000000000E+00 0.000000000000E+00 0.000000000000E+00 0.000000000000E+00 0.000000000000E+00 0.000000000000E+00 0.000000000000E+00 0.000000000000E+00 0.000000000000E+00 0.000000000000E+00 0.000000000000E+00 0.000000000000E+00 0.000000000000E+00 0.000000000000E+00 0.000000000000E+00 0.000000000000E+00 0.000000000000E+00 0.000000000000E+00 0.000000000000E+00 0.000000000000E+00 0.000000000000E+00 0.000000000000E+00 0.000000000000E+00 0.000000000000E+00 0.000000000000E+00 0.000000000000E+00 0.000000000000E+00 0.000000000000E+00 0.000000000000E+00 0.000000000000E+00 0.000000000000E+00 0.000000000000E+00
 1.696281068393E-01 1.039012004665E-01 0.000000000000E+00 -1.225908544267E+03 4.468951678470E+02 0.000000000000E+00 5.772781804639E-02 2.048753481797E-01 0.000000000000E+00 8.507952537816E-02 -2.231024436534E-02 0.000000000000E+00 5.821824637583E-02 4.701860875380E-02 0.000000000000E+00 4.074570639186E+01 -2.978425694236E-01 0.000000000000E+00 -1.004197143042E-01 -1.456448364637E-01 0.000000000000E+00 -2.001057376328E+01 3.591646683696E+01 0.000000000000E+00 -6.599911929408E-01 2.965984253685E-01 0.000000000000E+00 9.082180841621E-02 6.654521000680E-02 0.000000000000E+00 -2.751966401554E-03 -1.764623043075E-03 0.000000000000E+00 6.742852391101E-03 -2.245763006479E-04 0.000000000000E+00 -7.060490962548E-02 -3.522985448781E-02 0.000000000000E+00 -1.139660392150E+03 -3.890773901736E+02 0.000000000000E+00 -6.467566260987E-03 3.166086152988E-03 0.000000000000E+00 3.659775607030E+01 -7.855763432651E-02 0.000000000000E+00 -1.771192513186E+01 -3.240364057161E+01 0.000000000000E+00 2.731345028681E+03
 -8.455515388128E-02 1.009611781018E-01 0.000000000000E+00 4.565711971998E+02 -7.438393602976E+02 0.000000000000E+00 -3.152650769476E-01 -2.713846780789E-01 0.000000000000E+00 1.398853512385E-01 1.127591700734E-01 0.000000000000E+00 -7.972091590658E-02 1.686743727715E-01 0.000000000000E+00 6.692739812303E+01 -6.049835120584E-01 0.000000000000E+00 2.360357684152E-02 -2.482024081273E-01 0.000000000000E+00 -3.300789480711E+01 5.940178636632E+01 0.000000000000E+00 5.196497281431E-02 -1.664965065678E-01 0.000000000000E+00 -9.910192148892E-02 2.466386884614E-01 0.000000000000E+00 3.082468005341E-02 2.529314352320E-02 0.000000000000E+00 -2.096176893334E-03 -4.145393390897E-03 0.000000000000E+00 4.540016280062E-02 1.632918361165E-01 0.000000000000E+00 -3.874445958418E+02 -6.677857763854E+02 0.000000000000E+00 -2.519538298103E-02 -1.837799224931E-02 0.000000000000E+00 -6.507327300897E+01 1.056598772109E-01 0.000000000000E+00 3.147592351576E+01 5.758860195042E+01 0.000000000000E+00 -7.966592359360E+00 2.820749401622E+03
 0.000000000000E+00 0.000000000000E+00 0.000000000000E+00 0.000000000000E+00 0.000000000000E+00 0.000000000000E+00 0.000000000000E+00 0.000000000000E+00 0.000000000000E+00 0.000000000000E+00 0.000000000000E+00 0.000000000000E+00 0.000000000000E+00 0.000000000000E+00 0.000000000000E+00 0.000000000000E+00 0.000000000000E+00 0.000000000000E+00 0.000000000000E+00 0.000000000000E+00 0.000000000000E+00 0.000000000000E+00 0.000000000000E+00 0.000000000000E+00 0.000000000000E+00 0.000000000000E+00 0.000000000000E+00 0.000000000000E+00 0.000000000000E+00 0.000000000000E+00 0.000000000000E+00 0.000000000000E+00 0.000000000000E+00 0.000000000000E+00 0.000000000000E+00 0.000000000000E+00 0.000000000000E+00 0.000000000000E+00 0.000000000000E+00 0.000000000000E+00 0.000000000000E+00 0.000000000000E+00 0.000000000000E+00 0.000000000000E+00 0.000000000000E+00 0.000000000000E+00 0.000000000000E+00 0.000000000000E+00 0.000000000000E+00 0.000000000000E+00 0.000000000000E+00 0.000000000000E+00 0.000000000000E+00 0.000000000000E+00