#BIOSYM hessian 1
@Type: Hessian Update
@Units
 distance: 	A
 energy: 	Kcal/Mol
#header
@natom 73

#label
C1      C2      C3      C4      C5      C6      C7      C8      C9      C10     C11     C12     C13     C14     C15     C16     C17     C18     C19     C20     C21     C22     C23     C24     C25     C26     C27     C28     C29     C30     C31     C32     C33     C34     C35     C36     C37     C38     C39     C40     C41     C42     C43     C44     C45     C46     C47     C48     H49     H50     H51     H52     H53     H54     H55     H56     H57     H58     H59     H60     H61     H62     H63     H64     H65     O66     H67     O68     H69     C70     O71     O72     H73

#element
C  C  C  C  C  C  C  C  C  C  C  C  C  C  C  C  C  C  C  C  C  C  C  C  C  C  C  C  C  C  C  C  C  C  C  C  C  C  C  C  C  C  C  C  C  C  C  C  H  H  H  H  H  H  H  H  H  H  H  H  H  H  H  H  H  O  H  O  H  C  O  O  H 

#matrix
219
 2.776548734580E+03
 -2.373624587848E+01 2.802984201593E+03
 1.062149793814E+00 5.928653792967E+00 1.911104049047E+02
 3.862652796182E+01 6.589506453592E+01 1.277288336672E-01 2.808044018255E+03
 -6.069761626684E-01 -6.954257259336E-01 2.040954215130E-01 -2.569746921532E+01 2.750789958106E+03
 8.987507791443E-02 3.883848208175E-04 8.589882031323E+00 3.898557655504E+01 6.835466371027E+00 1.919230422452E+02
 -1.932395286217E+01 3.411280438519E+01 4.600210060762E-01 -1.173960919890E-01 -8.443898199783E-01 -1.599420150387E-01 2.810817597719E+03
 -3.332729355164E+01 5.830923082789E+01 7.614105254424E-01 -5.227633707693E-01 -1.869109071721E+00 3.089843633864E-02 2.227609827356E+01 2.740793563749E+03
 -2.128477700554E-01 1.904280050757E-01 8.723538340918E+00 -3.044186665521E-01 -3.843563681120E-01 9.634873954434E-01 -7.702134219963E-01 3.123382660080E+01 1.880562004749E+02
 3.534190386651E+01 -6.716771353155E+01 -7.179944870938E-01 -1.973553786262E+01 3.348458986210E+01 6.076250837715E-01 4.004753845209E+01 6.578173893844E+01 4.674466958429E-01 2.795011959875E+03
 -1.148491567224E+00 6.559754077590E-01 4.569908927153E-01 -3.278411483279E+01 5.545406239320E+01 9.301088699623E-01 -1.671521439838E+00 -4.152161482753E+00 -8.678614204120E-01 -1.406139353211E+01 2.803975777674E+03
 2.688560538126E-02 2.665137373150E-01 9.347133797016E+00 -9.660745480547E-01 1.953974124651E+00 9.153159515322E+00 1.113950765924E-01 7.366022943087E-01 8.531140331756E+00 1.151487725518E+01 3.193848188481E+01 1.964889025927E+02
 4.648285518044E-01 4.857364191329E-01 -3.416301482518E-01 2.057015995042E-01 1.949178883916E+00 -3.459711691012E-01 5.227151521489E+01 -8.029681243199E+01 -7.612953195554E-01 -1.867390183086E+01 4.153571439546E+01 -9.642520740183E-01 2.608098588375E+03
 -7.092448812267E-01 -1.086476858438E+00 4.171835606069E-01 -1.121829236599E+00 -3.783867071546E+00 2.306276894748E-01 -2.548741176144E+00 -5.500896924489E+00 -1.393264546759E+00 -4.073851192583E+01 5.632098535524E+01 2.455210699895E+00 -1.653051012378E+02 3.039982857223E+03
 1.646081269396E-02 -1.300162661767E-02 1.224033775719E-01 -2.135223408634E-01 1.342384562600E-01 8.134366315213E-01 -1.948141840040E-01 -2.374594614197E-01 1.320164453153E+01 -4.592129321982E-01 9.955974341226E-01 1.160715050240E+01 3.403739971587E+00 4.252560565287E+01 1.510682363870E+02
 -1.219990186241E+03 4.488838947732E+02 -4.857843811898E-01 -4.574934391133E+02 -1.284688710032E+01 -2.831352095525E+00 1.313592512649E-02 1.105896101482E-01 -3.360204742223E-02 3.379621474494E-01 9.024976743094E-01 3.165715765685E-02 -1.084429809075E-01 -1.669789175767E-01 1.968611357656E-02 2.816552047060E+03
 4.420394785446E+02 -7.422568952886E+02 -5.960292151513E-01 -9.501218120294E+00 -1.405284835010E+03 -2.083796935851E+00 3.651609899347E-01 1.273378384966E+00 1.675540746002E-01 1.822838904108E+00 4.783596314469E-01 -2.043192233510E-01 -9.530532906020E-01 2.250391005684E+00 -2.393005095472E-02 5.074507030727E+00 2.755780905184E+03
 -1.297322356133E-01 -7.292412907955E-01 -8.248105016392E+01 -3.267732957945E+00 -1.670904730518E+00 -7.933095103605E+01 1.224408979675E-02 4.995968342494E-02 4.569680155094E+00 1.248008992460E-01 3.471969489706E-01 -8.278816096415E+00 -2.372399738842E-01 2.510368330363E-01 2.209054869799E-01 4.614952441322E+00 1.014901901843E+00 1.907659113450E+02
 -1.196474201536E+03 -4.087160661712E+02 -1.257288730885E+00 1.802344457489E-01 -1.744019767379E-01 1.732534360665E-01 -1.240478746125E+03 4.448621325660E+02 5.679292533412E+00 -4.695663296992E+02 -7.326436638343E+00 -1.093492882676E-01 2.275856464259E-01 1.267698871322E-01 1.055551615525E-01 -1.913544283351E+01 -3.262684297245E+01 -1.014145767734E-01 2.792025583270E+03
 -4.071514098905E+02 -6.889322831544E+02 -3.614269230197E+00 -2.378761822353E-01 1.089457041330E+00 -1.694114998711E-01 4.548195594096E+02 -7.342041884140E+02 -7.048122326124E+00 -9.108917453291E+00 -1.455099062471E+03 -1.741967938121E+01 -3.155340205919E+00 4.586729453157E+00 1.002307835253E-01 3.448521793169E+01 5.705176377968E+01 1.554134107893E-02 -2.995699879022E+01 2.762750617872E+03
 -1.883856828666E+00 -3.406917364546E+00 -8.064540545977E+01 4.136237645638E-02 -6.441186452353E-01 -8.658194177739E+00 5.975488876682E+00 -8.821766733403E+00 -8.141373569645E+01 -1.226019412092E+00 -1.707730028462E+01 -8.396419554385E+01 9.094690247551E-01 -1.556132766075E+00 -1.044770572015E+01 3.652458063907E-03 3.148528318389E-01 8.047817498348E+00 -4.546226056404E+00 2.755871149319E+01 1.924813397194E+02
 1.950453642944E+00 1.943170277474E-01 -2.415054963076E-01 -1.221732145272E+03 -4.213539427298E+02 -1.677683039415E+01 5.080497280103E-01 2.480737381812E+00 2.159329228332E-01 -1.201670517637E+03 4.482098086973E+02 -1.876752403847E+00 -2.731453336786E+00 4.306556418305E+00 -1.724256377230E-01 3.610419244522E+01 -1.869813532051E+00 3.455448826681E-01 4.119733434232E+01 -1.680046241391E+00 7.688521617691E-01 2.781538108855E+03
 1.108104952785E+00 -4.971541543839E-01 -6.825577081564E-01 -4.265636137546E+02 -7.024772433925E+02 -1.055619955480E+01 1.108869978501E+00 3.746753128568E+00 6.772881020132E-01 4.515432992080E+02 -7.394538317841E+02 -8.681152331392E+00 -5.809590129620E+00 7.908218986543E+00 -3.867658387542E-01 -6.753926816533E+01 7.494449956392E-01 -1.452335188806E+00 6.880268274997E+01 -3.170176077518E+00 2.023725882020E+00 -6.357269109055E+00 2.797669621264E+03
 -1.500290104294E-01 1.576520713533E-01 -9.044473939065E+00 -1.590937055826E+01 -9.943143061816E+00 -8.259435957829E+01 -4.663772144976E-02 -4.923036518225E-01 3.817972519738E+00 -1.525564069191E+00 -6.970512310791E+00 -8.350379103013E+01 9.086765490681E-01 -5.952463482356E-01 4.245984462390E+00 5.315529761812E-01 8.978213573817E-02 8.571797297300E+00 5.561301642766E-01 9.795350271195E-01 8.760359602857E+00 2.026162378099E+01 3.683811218158E+01 2.009373227240E+02
 1.611996367735E-01 2.381644310246E-01 -1.246235424304E-01 1.010706764617E-01 8.847649961506E-01 5.661918617794E-02 -1.245492179479E+03 -4.428811428400E+02 -5.733207063094E+00 9.993874954764E-01 1.992948473545E+00 -4.090949989450E-01 -5.705382161975E+02 -7.894359385390E+00 -1.021350345884E+00 5.674646286079E-02 -4.927316878198E-01 -4.882730254474E-02 -2.160185987782E+01 -3.822887513632E+01 -1.170174187266E-01 -1.101000101550E+00 -1.997806122994E+00 1.587877627097E-01 2.608439367188E+03
 4.748355964618E-01 7.905851422663E-01 -3.489590932576E-01 8.803730579559E-01 2.878858071906E+00 -3.066597796278E-02 -4.579562160134E+02 -7.636667133386E+02 -7.995638028685E+00 4.943857166402E+00 4.373300686718E+00 -1.155256611317E+00 -2.361449585682E+01 -1.804962498830E+03 -2.644124451262E+01 2.440825983651E-01 -1.782912069789E+00 -1.484863186434E-01 3.513455590268E+01 5.787453016653E+01 2.033796471934E+00 -3.069134805548E+00 -5.563407794868E+00 1.675417101826E-01 1.877941699143E+02 3.019398476136E+03
 2.164951889192E-02 6.845765091433E-02 4.683140131600E+00 4.353704248351E-01 2.082835154917E-01 -1.017304797433E+00 -6.525545338633E+00 -8.853092129766E+00 -7.838502783288E+01 1.563224096273E-01 4.204248234936E-01 -1.015124931795E+01 -1.474212924478E+00 -2.534178609914E+01 -7.165611335113E+01 3.651926680256E-03 -1.201615892837E-01 1.627992277287E-02 3.358385588097E-01 4.868553925132E-01 8.907072894879E+00 1.295921148274E-02 1.326522210693E-01 1.403291660108E+00 5.706846030542E+00 3.976546734298E+01 1.539021295817E+02
 -1.888860873554E-01 -4.606917764985E-02 9.953872603283E-02 -1.685185953980E-01 -5.833434244065E-01 -7.027781511980E-02 -1.384901370740E+00 -9.427309080526E-01 -1.736683107813E-01 -1.242240517391E+03 -4.310078899757E+02 -8.852167897531E+00 -1.268140704243E+03 4.640535341477E+02 3.437108218800E+00 2.855487289356E-01 9.979325628875E-02 3.958981349371E-02 3.853631600311E+01 1.121949143439E+00 -9.300913072729E-03 -1.917797764486E+01 -3.189049615434E+01 -7.988067453372E-01 5.298521769469E+01 7.083512948794E-02 1.472628153497E-01 2.873482401876E+03
 1.837713654034E+00 1.662719892135E+00 -1.149683909717E+00 6.628420947399E-01 5.811731108613E+00 -1.223328719429E+00 3.660442998633E+00 1.120576228683E+01 1.804478245737E+00 -4.180804937437E+02 -7.098852156137E+02 -1.412555777413E+01 4.443152620201E+02 -7.694260207447E+02 -9.576392623417E+00 -9.331640872213E-01 -3.158145872866E+00 -7.006799000749E-01 -6.731974557221E+01 -8.859121104861E+00 2.742056706942E+00 2.614212645561E+01 4.015133248222E+01 4.321303920809E+00 7.946518524966E+01 -1.472961272144E+01 -3.509237734542E-01 -2.960044166485E+01 2.831687792571E+03
 -7.674275649004E-03 5.478986061958E-02 4.426932561281E+00 3.478506210536E-01 1.530021442133E-01 3.235503214265E+00 2.942215958756E-01 5.742673603730E-01 -1.230923670063E+01 -9.152922868429E+00 -9.350149496061E+00 -8.556569766141E+01 3.407647546412E+00 -8.320741976336E+00 -7.779200595248E+01 1.513579044239E-01 -6.058830828151E-02 -5.152026197324E-03 -8.666949260990E-01 -2.187853963011E-01 8.514600557550E+00 4.107052558329E-01 7.304035992792E-01 1.126908565656E+01 1.189494924674E+00 -8.653129701055E-01 1.294483381994E+01 6.686330483945E+00 3.846002026357E+01 1.959573144790E+02
 -5.482549821110E-02 -1.879759421947E-01 -8.356647875628E-03 -3.365882329251E-01 -6.084161580293E-01 -6.662238524655E-01 -2.613519144001E-01 -6.888401604525E-01 -8.674533224699E-01 -5.743582983853E-01 -4.764044471658E-01 -6.406561057039E-02 5.486501700273E-01 -1.530085687074E+00 -5.370151956709E-01 -1.251243072373E-01 4.536946267426E-01 -2.217392261648E-01 1.800706273419E-01 3.234385909413E-01 -3.768307150484E-01 2.588962760600E-01 3.143645586752E-01 2.524819916312E-01 2.437452581689E-01 1.183568186611E+00 7.443327291197E-01 -3.288103737783E-02 1.410686468024E+00 7.204997331468E-01 2.856632925317E+03
 -3.344663590274E-02 -1.106128869712E-01 -1.461590307256E-02 9.432000561869E-02 -2.354590249340E-01 -7.823758674848E-02 8.229785288995E-03 -1.548445877198E-01 2.853272198346E-02 -7.550142466583E-02 -1.624387406111E-01 -8.108797520704E-02 1.856556417846E-01 -2.713207537515E-01 -4.506175655985E-02 -1.686048038101E-03 1.875465327133E-01 -5.919871553613E-02 -5.372336390184E-02 1.944945747012E-01 6.966848698101E-02 5.745834495892E-02 2.966352123907E-01 -1.458362239178E-01 2.953659374224E-02 1.642737329245E-01 -2.923442841564E-02 -3.492484295088E-02 7.910843992117E-01 -9.422976055006E-02 -2.621589982210E+01 2.692722853048E+03
 6.350193623300E-02 -3.281401308709E-05 -1.641466570575E-01 -1.461788857501E-01 -1.475496324433E-02 2.668793757768E-01 8.178849361647E-02 1.127432543825E-01 9.603564720604E-01 2.268894144012E-01 -4.951868421843E-02 -7.953537919341E-01 -8.486735660274E-02 1.100961457231E-01 9.896939108259E-02 -9.378935774563E-02 7.434284741257E-02 4.386006946604E+00 -5.376974484235E-02 -1.197933481564E-01 9.621088270327E-01 -1.148183444814E-01 -3.280892064483E-01 -9.174307642335E-01 2.935123143087E-03 3.430052558468E-02 -9.232491808116E-01 7.883325664209E-02 -4.885431473587E-01 -1.179953480410E+00 1.605813434001E+02 -1.743722653248E+02 2.155332522370E+02
 -5.660522092013E-02 -4.509555611928E-02 9.255870939993E-02 -7.270639219240E-02 -1.718928869148E-01 -1.410195037508E-01 -2.069533308061E-01 -4.062127564513E-01 -5.429644425724E-01 -4.709895340373E-01 -3.531052756573E-01 4.725094115860E-01 3.735052789048E-01 -8.853641145161E-01 -1.684017739575E-01 -6.487755398867E-02 6.725633206595E-02 6.706708224575E-03 1.095222351721E-01 1.491653171767E-01 -4.847101756485E-01 3.432614090019E-01 2.533057057918E-01 -2.278326035596E-01 1.890110842679E-01 6.606896900479E-01 3.291550119745E-01 -1.171143973981E-01 9.062525115723E-01 2.752459590289E-01 4.736623148817E+01 8.025053972385E+01 1.815671866042E+00 2.710783962759E+03
 -5.487840052894E-02 -4.405833250232E-02 6.841394636032E-02 8.611650981418E-03 -3.466344533991E-03 2.685730499379E-01 -4.811917644654E-02 -1.134805504135E-01 1.576310174564E-01 -1.068599178076E-01 -2.394096445560E-01 3.028846729058E-01 1.914214424928E-01 -1.583137212318E-01 1.712290431837E-01 6.559372029621E-02 2.220889347189E-02 8.183515137613E-02 -4.410319619855E-02 1.327174955820E-01 -6.210779719184E-02 1.814843098861E-01 3.820422348820E-01 -3.683445340639E-01 7.971919439509E-02 8.697927403039E-02 -2.229809140192E-01 -1.148755201000E-01 6.860610724432E-01 -2.602269861597E-01 -8.449602635358E-01 -1.374947811415E+00 2.394957431825E-01 2.527540655493E+02 2.940392377456E+03
 -7.639954359163E-02 -6.736137105359E-02 -1.101334650550E-01 -3.597085064965E-02 -4.833796123486E-01 2.404110106770E-01 -2.704664653682E-01 -6.612783579769E-01 7.199354915272E-01 -4.714824101857E-01 -7.994232168090E-01 -6.314428716882E-01 6.403752982997E-01 -1.240773424669E+00 1.575508338815E-01 -7.643968806134E-02 1.461616965222E-01 -7.868534888787E-02 -1.384024567162E-02 6.297360280963E-01 6.663408141345E-01 3.656584835439E-01 1.030381916693E+00 -5.676907731461E-02 3.202527721889E-01 9.731210059548E-01 -5.084043364188E-01 -1.863849227782E-01 2.018463094297E+00 -5.097621544222E-01 2.857764452079E+00 8.394874773427E+00 1.319092072578E+01 2.001373479593E+02 -3.997925163826E+01 1.650989734131E+02
 -2.043984958724E+01 -3.435864234770E+01 2.863531810479E-02 3.870808482112E+01 -9.858546874008E-01 -5.738698701499E-01 -1.336493943745E-01 -6.383435800740E-01 -3.284757369867E-01 -3.553566773418E-01 -5.654489632833E-01 -2.021004574664E-01 5.075937503151E-01 -1.204224675220E+00 -2.739447512015E-01 -1.258270247264E+03 -4.370202259196E+02 -1.868116724050E+00 9.735382863473E-03 4.789301814803E-01 -3.680223292387E-02 1.025268526070E-01 1.103421500421E+00 2.817183806864E-01 1.512261293254E-01 8.778282611897E-01 3.923368935560E-01 -1.026935598543E-01 1.851365432023E+00 4.087564168625E-01 -1.940228955983E+01 3.455125599868E+01 -8.591522680505E-01 -1.228029394378E-01 -1.896372027301E-02 -1.593132346599E-01 2.777409261312E+03
 3.616765839262E+01 6.044024053127E+01 4.610789241495E-02 -6.728232784559E+01 6.776854725285E-01 6.562741033361E-01 8.223815651863E-02 1.130695788575E-01 3.392022318543E-01 3.463219228808E-02 1.565443617583E-01 5.950540024211E-01 -3.951131482126E-02 2.748691319615E-01 4.184804308051E-01 -4.429030071634E+02 -7.243257729302E+02 3.015775604466E+00 -8.307621700364E-02 -1.065758201155E-01 -1.215818697136E-01 8.947228572390E-02 -3.961005955389E-01 -6.597234657496E-01 4.792676423448E-03 -1.953883660886E-01 -4.530853807499E-01 -2.114978568289E-02 6.712113955281E-02 -5.376182998004E-01 -3.246714431015E+01 5.795796256159E+01 -1.115959380567E+00 -7.320862652807E-02 8.473319143542E-02 1.427172519539E-01 3.050067594497E+01 2.785499420966E+03
 9.372888637404E-02 8.520408729925E-02 9.858528128168E+00 -2.851983599066E-01 2.523709267825E-01 9.735956674780E+00 -4.118344597927E-02 9.654489906304E-02 5.454464154325E-01 2.264434283575E-01 2.929032007013E-01 4.753234517703E-01 -2.568083064359E-01 2.326875778863E-01 4.913379550630E-01 -2.518626568670E+00 2.123047347893E+00 -8.272947104061E+01 1.131029740146E-02 -2.352992328402E-01 4.640901077998E+00 -2.983595537452E-01 -4.728345981228E-01 3.871805293270E+00 -3.326419581343E-03 -1.053692868446E-01 -5.994079496180E-01 -8.639589561142E-03 -8.639253340030E-01 -7.675349647574E-01 -7.497476222339E-01 4.096796697029E-01 7.968935182089E+00 -7.431215372077E-02 1.623043982899E-01 1.224279506813E-01 2.923189186493E+01 -2.935601340172E+01 1.912044866519E+02
 -8.529290485125E-02 2.718601651180E-02 1.866765211097E-01 -1.881291576401E+01 -3.094809597906E+01 -8.246703653974E-01 -2.262665479637E-01 -3.783152354522E-01 -3.784834928033E-02 -5.326502925601E-01 -6.605577999965E-01 7.536529372114E-01 5.671667933380E-01 -4.772028786378E-01 2.358742679733E-01 1.435179714816E-01 -7.235476524611E-02 3.929959573282E-01 -7.782411624368E-02 4.771463925837E-01 -3.973477627512E-01 6.021406840607E-01 1.384436719670E+00 -4.932533142217E-01 2.143395632915E-01 2.121660453035E-01 -1.106347345549E-01 -3.799542380526E-01 1.975047652845E+00 -1.998363192933E-01 3.865696638890E+01 -6.905077352432E+01 2.114124314780E+00 -2.326530091208E+01 4.045342870611E+01 -2.319878060364E+00 3.869920566314E+01 6.510402437104E+01 -5.443055916551E-01 2.801486493471E+03
 -1.632664493564E-01 -2.450146821688E-02 8.340284684656E-02 3.416087123214E+01 5.618708303428E+01 1.677234340428E+00 -5.292005867867E-02 -2.549116170541E-01 -2.094178583779E-01 -2.722393945870E-01 -3.625672599839E-01 4.733791838516E-01 2.357287094574E-01 -4.251975538115E-01 1.898617747458E-03 -5.270083394325E-02 -9.319583611499E-02 9.225007947663E-02 -1.976187146624E-02 1.626838041081E-01 -2.939290765026E-01 3.291616975678E-01 6.890913940822E-01 -4.983534189775E-01 6.756329929944E-02 2.705214079671E-01 5.928662095239E-02 -1.493928746304E-01 9.304728298274E-01 -8.438538382819E-02 -1.375554288414E-01 4.594123734309E-01 3.862274845147E-01 -4.246459563286E+01 7.382966155753E+01 -3.064675279488E+00 -4.621808838830E-01 -4.800863191740E-01 1.153860189173E-01 -7.094332813200E+01 2.736628619467E+03
 -8.018520672646E-02 1.127547175876E-01 2.042920502959E-01 -4.431755934561E-03 4.824263704987E-01 6.894190450477E+00 1.129171913352E-01 5.416070503828E-01 -1.860423250863E+00 2.005916929603E-01 7.779759439149E-01 1.115370459521E+00 -3.617472305883E-01 8.865298108289E-01 -5.047442252823E-01 2.290387454756E-01 -1.507536920589E-01 -8.513634255356E+00 5.825755246095E-02 -5.681837847295E-01 -1.556563548535E+00 -4.256137942697E-01 -7.400554100978E-01 5.312210747409E+00 -2.329039512077E-01 -8.354666991120E-01 1.604196346279E+00 1.928383429050E-02 -1.323168289564E+00 1.859970584807E+00 1.411654285376E+00 -1.918661428898E+00 9.796200963193E+00 -1.902325630434E+00 2.410473706743E+00 1.187372246335E+01 7.580875811424E-01 8.336599599073E-01 7.834574030553E+00 1.315145604166E+02 -5.299829768990E+01 1.947626620148E+02
 1.345074643732E-01 2.853564782713E-01 1.898478446220E-01 3.740246112266E-01 1.329661735583E+00 1.067854093552E+00 6.610437271187E-01 1.793415650105E+00 9.926507032059E-01 1.544426948613E+00 1.552036102043E+00 8.518350081875E-01 -1.555463910137E+00 3.709017252131E+00 8.929733995520E-01 2.890488263931E-01 -7.504909748339E-01 3.994339704389E-01 -2.524645604180E-01 -1.221992934458E+00 7.708064111377E-02 -9.030778146453E-01 -1.618611321278E+00 -8.086632014461E-01 -6.939983769515E-01 -2.880240338614E+00 -1.053453337597E+00 2.238940440247E-01 -4.438128164659E+00 -1.168972377994E+00 -1.301028690546E+03 4.568802630852E+02 -1.216836287759E+02 -5.091238602167E+02 -1.656189487419E+01 -4.289290027813E+01 4.682915405747E-02 3.904149443295E-01 3.443396852586E-01 1.585621679229E-01 1.123862317508E-01 3.041773456242E-01 2.544801833327E+03
 -2.251363723921E-02 -5.566493927409E-02 4.382972102072E-03 -3.238788351194E-01 -3.527174503952E-01 -9.556708364657E-03 -3.870103903937E-01 -7.384272610328E-01 -2.130390886327E-01 -5.859632591781E-01 -3.416900917989E-01 2.898273309921E-02 4.234935917477E-01 -1.465057133730E+00 -4.418833553562E-02 -1.266630838861E-01 2.009354958300E-01 -2.029921211366E-02 2.306047763378E-01 3.101142017978E-01 -1.227959245900E-01 2.204202400249E-01 1.249173269461E-01 2.850468747576E-01 3.242053542953E-01 1.245781140406E+00 2.385812551414E-01 -8.542308370180E-02 9.717679457735E-01 2.480978238422E-01 4.902969637574E+02 -7.593063602032E+02 6.651940111620E+01 -4.749109409109E+01 -1.650775168505E+03 3.402182473859E+01 -3.048147133075E-01 5.210983554088E-02 3.854230400417E-01 1.809189011338E-01 -4.900659306086E-02 -3.432576505052E-01 -1.310769702099E+02 2.796803948853E+03
 -5.518004617141E-02 -9.339954085714E-03 -2.744834170409E-01 5.481230447756E-01 -2.936372432554E-01 -1.607045564635E+00 3.453722677966E-01 2.220975828778E-01 -1.042174088969E+00 -1.606191151539E-01 -6.538050680505E-01 -1.217296119815E+00 3.975910352246E-01 8.438726549185E-02 -1.209518243872E+00 -2.150322382838E-02 1.362637811842E-02 -5.013303721982E-01 -2.770745689075E-01 2.366134486936E-01 6.087399245562E-02 4.982335541317E-01 9.713088946765E-01 6.182975589347E-01 -1.700748544108E-01 -3.146048754810E-01 1.010141832557E+00 7.030328914923E-02 1.319192793903E+00 1.227395059507E+00 -1.249319932035E+02 6.523358867952E+01 -1.014886438928E+02 -4.275701734492E+01 3.241361297484E+01 -8.512655006527E+01 5.302611157328E-01 -8.939223345774E-01 3.795631935009E+00 -2.121858044262E-01 -2.149094441664E-01 -1.031108622455E+01 2.822311359947E+02 -3.405040573040E+01 2.860221396321E+02
 5.161898915235E-02 3.353778292368E-02 -6.361281344676E-02 -4.292048333611E-02 -8.819077036171E-02 5.527095653707E-01 1.715463887645E-01 5.208357527301E-01 3.686537382357E-01 4.452465420282E-01 6.426056387525E-01 1.159882188456E-01 -4.486252830711E-01 1.091832269469E+00 2.452733403209E-01 -1.952791295043E+01 3.468815199932E+01 -1.036620245996E+00 -7.290499117715E-02 -2.858434110378E-01 1.303161920922E-01 -3.654498503650E-01 -6.902732976214E-01 -3.034213464008E-01 -2.255304983306E-01 -8.971795095472E-01 -3.667535316021E-01 5.859099992543E-02 -1.207271422272E+00 -4.314861963921E-01 -1.240166927054E+03 -4.312164733654E+02 -3.497468221536E+01 7.607244608747E-02 -7.497765085614E-04 7.367778553773E-01 -1.164287804847E+03 4.217630186582E+02 -2.493870772302E+01 -4.636248880615E+02 -1.703253742971E+01 -1.422995290498E+01 -2.135071394378E+01 -3.532335900124E+01 -4.988584870012E-02 2.759440460814E+03
 1.072192854010E-01 -4.722250078403E-02 3.397675615564E-02 -8.539501690690E-01 -7.414161222569E-02 -4.720102817947E-01 -2.592575351427E-01 -5.628936834406E-01 -4.720975972901E-01 -6.174844053913E-01 -5.343709240846E-01 -3.082443763527E-01 4.885224606147E-01 -1.179747644658E+00 -3.684449478566E-01 -3.268789841414E+01 5.848957059934E+01 -1.602005222323E+00 1.807985384876E-01 3.869595448432E-01 -1.200699351624E-01 4.564296968877E-01 3.353367075113E-01 5.421527164825E-01 2.613194829749E-01 9.476791148551E-01 4.994939956578E-01 -4.058270168029E-02 1.124875518947E+00 6.670600624159E-01 -4.439125864776E+02 -7.195950778015E+02 7.597995607896E+00 8.566638813563E-02 -7.556552689142E-02 -9.359068698656E-01 4.215990463114E+02 -7.106378924978E+02 1.585273645316E+01 -2.748568066933E+00 -1.457259778655E+03 2.987472833907E+01 3.783827963067E+01 6.358978679073E+01 -4.943637283456E-01 1.775667477268E+01 2.765671357287E+03
 -1.090901667139E-01 -1.228725443325E-01 4.358250938616E+00 8.767161916026E-02 -5.822004945405E-01 -8.133631127191E+00 -2.895982458792E-01 -7.411591591157E-01 1.387459041786E+00 -5.024304722799E-01 -1.124715542851E+00 -1.054561328934E+00 8.077828010389E-01 -1.243584065434E+00 3.969107482125E-01 2.845552062121E-01 -3.729016553313E-01 8.571878056487E+00 -1.469082737027E-01 9.339704155435E-01 1.183709352968E+00 5.230236748093E-01 1.690535801968E+00 5.518526892621E-02 3.881483738705E-01 9.750173323506E-01 -9.526937919677E-01 -2.854219422774E-01 2.753954062048E+00 -8.846865975876E-01 -3.394740749914E+01 9.084453115643E+00 -8.396517048003E+01 3.084019827052E-01 -7.807018072074E-03 -1.023937962672E+01 -2.711068354906E+01 1.725409748467E+01 -7.968059112120E+01 -1.473970050056E+01 2.721328214108E+01 -8.344896366745E+01 -4.538897691643E+00 -6.291003110407E+00 1.150664239741E+01 6.987669667188E+01 -4.878630271466E+01 1.932018455357E+02
 4.134145944362E-02 -3.828782338449E-02 -1.217548122950E-01 -4.258169993403E-02 -2.040551673595E-01 -5.690545224343E-01 4.370024345003E-03 -7.640126472252E-02 -1.058712301720E-01 2.505624299262E-02 1.123566214563E-01 -5.437553356960E-01 -4.033250563685E-02 -2.164850510929E-01 -2.369876389580E-01 -1.151551531135E-01 1.753036593327E-01 -1.439433751527E-01 6.027932050588E-02 6.434575382630E-02 2.041512090349E-01 -2.180948837793E-01 -1.088602593429E-01 5.027720268437E-01 -3.486919227054E-02 1.915913670693E-01 2.497173203971E-01 1.276598426194E-01 -1.628186754681E-01 3.542147827594E-01 1.955824019105E-02 4.585889764721E-02 5.444956058639E-01 -1.429423960205E+03 -5.067396515899E+02 -9.406885421894E+01 1.536533721199E-01 -8.877197066923E-02 -4.663170963423E-01 -1.334244329653E+03 4.600654239320E+02 -7.716957231009E+01 4.984891438591E+01 -1.051075177822E+00 3.635987355004E+00 4.038562714591E+01 -1.955527246341E-01 1.831351770661E+00 3.050813565232E+03
 8.792270782933E-02 1.293174337638E-01 -2.822957857007E-02 1.441969266949E-01 5.348934799471E-01 4.811970470913E-01 3.547636853400E-01 8.490977918617E-01 5.961428129414E-01 8.027734542375E-01 7.697601018217E-01 -1.487774765208E-01 -7.665796428472E-01 1.749002592631E+00 3.028896615269E-01 1.227676637166E-01 -2.812092756594E-01 6.072166967350E-02 -1.357089755555E-01 -5.227573028516E-01 3.614979091513E-01 -5.450754375438E-01 -7.817670360400E-01 -2.274464668586E-02 -3.558724721974E-01 -1.319336701432E+00 -4.617415347949E-01 1.844572934830E-01 -2.167817776642E+00 -4.097689532325E-01 1.424121732153E-02 -8.384213100389E-02 -3.728011543448E-01 -5.067157934530E+02 -8.408064493913E+02 -2.555669541427E+01 9.777576222073E-02 1.167370235434E-01 2.834411025258E-01 4.477363996543E+02 -7.581886740312E+02 3.494236772737E+01 -8.732538553720E+01 1.821925491388E+00 -7.340374864107E+00 7.323928940589E+01 -3.336930340721E-01 4.517694426301E+00 3.911880904708E+01 2.549907864302E+03
 5.054391142233E-02 8.347725152191E-02 7.920006706076E-02 -1.477632164825E-01 1.992176942431E-01 5.147228961319E+00 7.850929563439E-02 3.480363718573E-01 1.562317992571E-01 3.611512787997E-01 5.419717349760E-01 4.120120829090E-01 -4.156343402047E-01 6.431418630496E-01 2.167472031245E-01 -2.646085012698E-02 -1.859367342428E-01 8.582968207244E-02 3.639732413679E-02 -4.357446161486E-01 -8.219920573734E-02 -3.702336588052E-01 -7.926352309640E-01 -5.406686395291E-01 -1.284251576398E-01 -4.507714787317E-01 -2.879446602385E-01 7.235454524272E-02 -1.432627965845E+00 -4.455490090890E-01 9.420527254544E-01 -2.154316072010E-01 -1.088668005350E+01 -9.260852761260E+01 -2.490422169529E+01 -7.505064844602E+01 -1.900238300735E-01 3.226355633325E-01 4.863512075749E+00 -7.863219471152E+01 3.681596455943E+01 -8.363829323917E+01 5.246979014874E+00 -2.381517042388E-02 1.405398432415E+01 1.302011619560E-02 2.225796432768E-01 9.518010185655E+00 1.899235475568E+02 -2.800468465111E+01 1.642629124015E+02
 6.130533082161E-02 -2.913310151253E-04 -1.938072695466E-01 -1.248944568040E+03 4.544477448308E+02 -2.086586737488E+01 4.530876068750E-01 8.430648328639E-01 1.180846614651E-01 7.224330234403E-01 7.089834130877E-01 -5.422225112666E-01 -9.216292184577E-01 1.720752487173E+00 -1.442731290809E-01 4.005393375676E+01 -1.040025772015E+00 3.156226441585E-01 4.399981502414E-03 -4.384596963519E-01 3.543705993539E-01 -2.092933856795E+01 3.624385311312E+01 -3.183724224400E-01 -5.069325739047E-01 -1.373585551084E+00 -6.291162261608E-02 3.513203254258E-01 -2.523353094310E+00 -1.223993522973E-01 5.379359008998E-01 9.824237636312E-02 -1.149463406100E-01 9.890309985841E-02 2.342199877186E-02 -1.275731051240E-01 -3.078265356243E-01 -1.866687638265E-01 1.432801545501E-03 -1.119449225177E+03 -3.771731844157E+02 -3.898709540259E+01 -8.253230627262E-01 1.179352125740E-01 3.432627999773E-01 3.478982274171E+01 4.797457646323E-01 1.546990117315E+00 -1.785713709077E+01 -3.314487262858E+01 -7.652999356277E-01 2.740389041568E+03
 4.318008775676E-01 3.076977646073E-01 -3.600258310717E-01 4.658154247861E+02 -7.524486169743E+02 2.726378001854E+00 5.522956296115E-01 1.405718243790E+00 3.368617476196E-01 1.641315609340E+00 1.744501113831E+00 -1.678521676412E+00 -1.545593472291E+00 2.105624775933E+00 -3.395464708649E-01 6.638984646467E+01 -1.387919295205E+00 7.235822355503E-01 6.101054877323E-03 -1.261876262027E+00 9.322322636363E-01 -3.509041084294E+01 5.725719612315E+01 6.985511858453E-01 -6.340539942736E-01 -1.417170524299E+00 5.546220303104E-02 8.886473154011E-01 -5.427061994480E+00 2.415465598298E-01 1.214920267399E-01 3.257458250911E-01 1.664171977589E-01 -1.867997014072E-01 2.595882570758E-02 6.224774378366E-01 3.905645650169E-01 4.185338187170E-01 -4.704041852972E-01 -3.790324003774E+02 -6.562123095439E+02 -1.395030082495E+01 -5.858860398042E-01 -1.927549729329E-01 8.681057746059E-01 -6.240779429148E+01 7.622632250227E-02 -2.144626703531E+00 3.278125788140E+01 5.913459376572E+01 6.648342587009E-02 -2.952193692257E+01 2.813115137790E+03
 1.092848214927E-01 -8.881527345736E-02 4.694337476240E+00 -2.019423583248E+01 2.970919991843E+00 -8.399865093016E+01 6.902771647796E-02 2.353071848250E-01 -3.064378908247E-01 1.503530381981E-01 4.042596155870E-01 4.959128804089E+00 -3.883172288627E-01 4.148301501217E-01 -8.428751990862E-02 3.317175742315E-01 3.826978264969E-02 8.687976075652E+00 1.345984948994E-01 -3.214403302179E-01 -2.615512646608E-01 -7.169992264053E-01 -2.432836910778E-01 9.697277672751E+00 -1.345172290028E-01 -2.797225229604E-01 1.577614617397E-01 1.549669601005E-01 -1.377878651539E+00 6.592014204474E-02 -1.865794829495E-01 1.104193688446E-02 4.078756560223E+00 -4.207731147048E-02 -4.298257085834E-02 5.128071809644E+00 2.663293614766E-01 9.693718988705E-02 -8.754339959984E+00 -3.883944051673E+01 -1.278900751142E+01 -8.124321627761E+01 -1.962431339844E-02 1.389325657471E-01 2.183978611202E-01 2.823132962516E+00 -8.674124582690E-02 7.545263589075E+00 -2.514961605054E+00 -3.041492189384E+00 1.030975702851E+01 6.683134943478E+01 4.253721772773E+01 1.901220229169E+02