#BIOSYM hessian 1
@Type: Hessian Update
@Units
 distance: 	A
 energy: 	Kcal/Mol
#header
@natom 72

#label
C1      C2      C3      C4      C5      C6      C7      C8      C9      C10     C11     C12     C13     C14     C15     C16     C17     C18     C19     C20     C21     C22     C23     C24     C25     C26     C27     C28     C29     C30     C31     C32     C33     C34     C35     C36     C37     C38     C39     C40     C41     C42     C43     C44     C45     C46     C47     C48     H49     H50     H51     H52     H53     H54     H55     H56     H57     H58     H59     H60     H61     H62     H63     O64     H65     O66     H67     H68     O69     H70     O71     H72

#element
C  C  C  C  C  C  C  C  C  C  C  C  C  C  C  C  C  C  C  C  C  C  C  C  C  C  C  C  C  C  C  C  C  C  C  C  C  C  C  C  C  C  C  C  C  C  C  C  H  H  H  H  H  H  H  H  H  H  H  H  H  H  H  O  H  O  H  H  O  H  O  H 

#matrix
216
 2.801198023028E+03
 -1.527897850561E+01 2.817416471346E+03
 6.129365918847E+00 2.353966253750E+00 1.939837900295E+02
 3.786770636312E+01 7.018412120017E+01 -7.137596197286E-01 2.805460106410E+03
 -1.561159237615E-01 -2.062466251222E+00 1.876917278386E-02 -2.749683405652E+01 2.764315745724E+03
 5.700654473838E-03 2.446324104186E-01 8.707899364383E+00 5.028135080884E+01 2.573694166489E+00 1.941538916226E+02
 -1.985278392955E+01 3.696408083363E+01 2.173799415335E-01 -4.094967338157E+00 1.473491522142E+00 1.929292416237E-01 2.843604686463E+03
 -3.355576366874E+01 6.050202208782E+01 5.901826997439E-01 -6.532289625899E-01 1.960092824571E-01 -6.590772393369E-02 2.971201726932E+01 2.765392252676E+03
 -1.121026531694E+00 1.654790062034E+00 9.211372492327E+00 -1.477072256974E+00 4.484347458797E-01 4.585480007818E-01 2.168809474478E+00 3.260448831081E+01 1.927261528583E+02
 3.732128585276E+01 -6.729735106303E+01 -3.407937279188E-01 -1.883667695289E+01 3.510392229518E+01 4.048345867178E-02 4.145366916664E+01 6.996715207997E+01 1.022154523250E+00 2.801904697106E+03
 1.145621544441E+00 -2.840928155158E+00 -8.543746233568E-01 -2.638911303894E+01 5.707721809487E+01 4.205230476624E-01 3.222802697252E+00 -4.105047687318E-01 3.980765713992E-01 1.258377447496E+01 2.815803333228E+03
 1.228702060620E-01 3.284467218903E-01 8.853473149323E+00 -1.641740131650E+00 1.401035439038E+00 8.961831535777E+00 2.779267249379E-02 -1.441005795624E-01 1.074473886860E+01 1.759492247645E+01 3.061232025619E+01 1.974739888041E+02
 1.532229434291E+00 -3.503745917935E+00 -6.775266277734E-02 6.665539841761E+00 -2.280873326128E+00 -5.487721046217E-01 5.562146565899E+01 -8.309610890103E+01 8.808645348510E-01 -2.237920136634E+01 3.104943581352E+01 1.312654290887E+00 3.156097017684E+03
 1.625004166596E+00 -4.183751506864E+00 1.193913442845E-01 7.926932932549E+00 -2.695360939360E+00 -5.177626562918E-01 5.020472413478E+00 2.013352967528E+00 9.353657546685E-01 -3.596466415371E+01 5.299361174825E+01 9.173970579120E-01 1.460537591832E+02 3.340084178750E+03
 -2.311154426800E-01 1.516578873884E-01 4.791619664089E-01 -4.688079459120E-01 6.078617866132E-01 1.533563379467E+00 -1.694438716411E-01 -3.641469501017E-01 1.220886796283E+01 -5.206520133383E-01 8.874255315983E-01 1.024980935811E+01 1.336863765240E+01 4.880872558918E+01 1.946306168659E+02
 -1.225998485325E+03 4.470942356580E+02 -2.073475183910E+00 -4.578036212096E+02 -1.454632932231E+01 -5.004115908585E+00 1.478042648390E+00 1.921227942602E-01 6.760824429806E-01 -1.858554962077E-01 -2.668432302119E+00 3.068332689951E-01 -2.862072082029E+00 -3.223797898363E+00 2.333413702522E-01 2.835848531646E+03
 4.417449000225E+02 -7.434066979586E+02 1.038136072074E+00 -1.267548783082E+01 -1.412469580478E+03 6.582139513091E-01 -8.035430843163E-01 -1.257773828840E-01 -2.932290208155E-01 6.910402504737E-02 1.240273914448E+00 -5.070809108883E-01 1.221979170247E+00 1.555396975133E+00 6.206107116730E-02 7.794982494223E+00 2.767493856704E+03
 -4.091085475353E+00 1.845009837925E+00 -8.355705538618E+01 -3.863680808070E+00 -2.851586073791E-01 -8.068383233185E+01 -6.898750007828E-02 -2.034253865287E-02 5.076483045882E+00 2.409682911499E-01 1.026971947901E+00 -8.748621263051E+00 6.181518007449E-01 3.833339518289E-01 -1.682239608304E-01 8.919448454662E+00 -3.713771318808E+00 1.932673640597E+02
 -1.212137693747E+03 -4.149808273151E+02 -3.833344533802E+00 7.572222209243E-01 -2.264551037712E-01 6.502960015918E-02 -1.252972872505E+03 4.471549307068E+02 5.631475271959E+00 -4.731667012959E+02 -1.334233182161E+01 -1.803382652161E+00 -8.349081416332E-01 -1.048821931685E+00 8.171920899816E-02 -1.973288028125E+01 -3.257689063789E+01 2.850196954424E-01 2.823899557036E+03
 -4.135524435732E+02 -6.962845437519E+02 -3.256720406933E+00 -4.519234359541E+00 1.655415185489E+00 2.929541318375E-01 4.543330212560E+02 -7.466160379482E+02 -7.875197793062E+00 -1.584369558829E+01 -1.459907719518E+03 -1.689968618728E+01 4.477101068572E+00 5.434242375315E+00 2.360073878762E-01 3.711818558233E+01 5.816285403977E+01 -5.329231082634E-01 -2.116973942107E+01 2.784146951086E+03
 -2.046606770580E+00 -4.682748378264E+00 -8.200531264719E+01 4.242615251670E-01 1.525613255390E-01 -8.656068910756E+00 4.412128274157E+00 -6.440423852854E+00 -8.465190686456E+01 -1.447657125182E+00 -1.743499022174E+01 -8.357734547198E+01 -2.298192388619E-01 1.533831429587E-01 -1.005795207557E+01 -7.475781660919E-02 1.218111786585E-01 8.313954799582E+00 -1.342729081085E+00 2.763932989215E+01 1.946103460770E+02
 9.635872890633E-01 -3.075963062803E+00 5.021845603940E-01 -1.227319937608E+03 -4.211430226315E+02 -2.145818024851E+01 3.157511335757E+00 4.891828694699E-01 5.987141111467E-01 -1.210616810347E+03 4.332819578085E+02 -3.652433070208E+00 -5.085932769896E+00 -5.859826518741E+00 -2.901915885440E-01 3.429606856430E+01 8.070438332110E-01 -6.448664635845E-02 3.958236767265E+01 2.821435110352E+00 2.470814201662E-01 2.805146982269E+03
 -6.957391907903E-02 3.795010881441E-01 6.100757852989E-01 -4.239542816225E+02 -7.047105175987E+02 -1.116216075736E+01 1.585756250963E+00 5.648328747701E-01 7.211637310731E-01 4.403553906099E+02 -7.367975839099E+02 -4.084381499665E+00 -1.325198571938E+00 -1.831212099401E+00 1.903433683055E-01 -6.634503444612E+01 7.260588970957E-01 -1.122241314137E+00 6.757183637607E+01 -2.575017094442E-01 5.879290872857E-02 3.282385586805E+00 2.803381617181E+03
 -3.672010784945E-01 8.118116646838E-02 -9.014451005494E+00 -2.037577342738E+01 -1.127466470063E+01 -8.328424153764E+01 -4.153148257482E-02 -1.123802977226E-02 4.668959451239E+00 -4.272634374699E+00 -4.143802899772E+00 -8.288411548617E+01 1.983477702839E-01 1.542173483927E-01 4.186091434253E+00 5.714376075073E-01 6.533455840296E-02 8.703998110785E+00 1.207842402722E+00 -5.105547943783E-01 8.854151783168E+00 2.808728523742E+01 3.487904550678E+01 1.957362430269E+02
 1.738322252343E+00 -4.380377424019E+00 2.806980808484E-01 5.537103985079E+00 -1.604553599704E+00 -2.628570718080E-02 -1.265454767731E+03 -4.536525297011E+02 -7.423526263095E+00 7.240180125894E-01 -4.661812823879E+00 4.857035278303E-02 -6.056815222808E+02 -5.955499053591E+00 -1.600966887473E+00 -2.875786197371E+00 1.390063009365E+00 1.852569989698E-01 -2.295645491881E+01 -3.425884900411E+01 -6.142756509614E-01 -4.325759763361E+00 2.479806496734E+00 1.314353780031E-01 2.630887319887E+03
 6.716922210826E-02 -1.184656198776E-01 -4.121218972226E-01 1.091514493588E+00 -4.173296112268E-01 4.125657164819E-02 -4.684789118411E+02 -7.808621583373E+02 -1.031496898845E+01 -5.713910718493E-01 -1.081598183041E+00 5.452835619864E-01 -2.153206860499E+01 -1.792667895271E+03 -2.720415169198E+01 -2.301588527004E-01 1.355683030234E-01 -4.867792549398E-02 3.641138534421E+01 6.368038835405E+01 -1.657258309158E-01 -7.179207645957E-01 -1.637628879378E+00 -9.385433803862E-03 2.081208334854E+02 3.002811770045E+03
 2.438988320867E-01 -4.092631220877E-01 4.396502481371E+00 5.664909597312E-01 -5.435552802525E-01 -1.168241982598E+00 -8.219416613458E+00 -1.016266705198E+01 -8.063776277862E+01 -2.437221396357E-01 6.007148343122E-02 -1.047552366756E+01 -2.363621403623E+00 -2.740989259897E+01 -9.518485809654E+01 -2.712135853811E-01 3.103186572480E-02 7.584962976832E-02 3.052200917496E-01 5.225738546635E-01 9.711771096379E+00 6.509624808489E-02 -1.261818453337E-01 3.570172556366E-01 9.135072744612E+00 4.233835315840E+01 1.749017733437E+02
 -2.829441031452E-01 1.049408775925E+00 -3.847557429698E-01 -2.547159130653E+00 9.207455939967E-01 1.980510228850E-01 -2.619706897944E+00 -4.556304224812E-01 -5.863365495065E-01 -1.236821586517E+03 -4.374082494410E+02 -1.197163362520E+01 -1.231021868150E+03 4.436856467558E+02 1.828493672197E+00 9.022676784171E-01 -4.826089445846E-01 -1.901384237361E-01 4.025762135538E+01 -2.063658959492E+00 -3.081043394773E-01 -1.849963842915E+01 -3.341260488673E+01 -4.415299668322E-01 5.132575869850E+01 2.275839987767E-01 4.607023240917E-01 2.836152776462E+03
 -1.891458399743E+00 4.785293448207E+00 -1.377261707643E-01 -7.599238230778E+00 2.475500983854E+00 2.145678574190E-01 -4.086097476099E+00 -2.573861891553E-01 -3.125601042673E-01 -4.395758354568E+02 -7.322984663996E+02 -1.085334466354E+01 4.506377601309E+02 -7.946942946717E+02 -8.561681581828E+00 3.385861400878E+00 -1.653062933955E+00 -3.792802731211E-01 -6.766075751338E+01 -4.400284884172E+00 1.933461466185E-01 4.103116356257E+01 5.944992188845E+01 4.795034186923E-01 8.875212486715E+01 -6.386404757598E-01 2.201629182377E-01 -7.705125399855E+00 2.914066547126E+03
 2.742488676180E-02 -3.429279615072E-01 4.463962370614E+00 6.767177903637E-01 -4.135544463406E-01 4.497974969389E+00 3.715463950468E-01 2.319182657455E-01 -1.195486228890E+01 -1.175285828490E+01 -1.120568268754E+01 -8.846335091983E+01 4.760934492356E-02 -9.574396798580E+00 -8.671383723227E+01 -9.134704060455E-02 1.664358341445E-01 -3.774225368713E-01 -1.021540038027E+00 4.377551629177E-01 1.008326454956E+01 -1.262510791783E-01 -8.189896454846E-02 9.168398400383E+00 1.323563813705E+00 -3.163999295286E-01 1.122981583602E+01 1.177826945181E+01 4.016709499584E+01 2.014944702606E+02
 2.077378836363E-01 -6.231652681147E-01 -2.029263321817E-01 7.589214156707E-02 -1.106784429827E-01 -4.279067137936E-01 -1.030196932050E+00 -3.703361457983E-01 -1.381818612211E+00 5.594342288686E-01 2.396547630789E-01 -7.207505426732E-01 1.069715712344E-01 1.059436843059E+00 -9.427003568345E-01 -1.515359714863E-01 1.701607286233E-01 -6.938770933738E-01 -1.809635694096E-01 -1.769314888645E-01 1.637221516107E-01 1.491535717445E-01 1.350546004482E+00 6.713605559969E-02 -2.429053590404E+00 1.317850641486E+00 7.847022531367E-01 -7.307111860769E-01 2.683927281346E-01 1.143704996595E+00 2.866591804452E+03
 1.547027919449E-01 -3.267434557352E-01 -1.779680717758E-02 8.345535633039E-01 -3.041843536290E-01 -1.458278906676E-02 7.860126406746E-01 1.841513537269E-01 3.262982589513E-01 -2.057973663310E-01 -8.224954020102E-01 2.241552569126E-01 -8.340039219471E-01 -1.188915149247E+00 -1.252226806949E-01 -2.814141194482E-01 1.169970600726E-01 2.135137911462E-01 -5.234930462019E-02 5.835713332871E-01 -1.812266360100E-01 -6.281003897120E-01 -4.427225056636E-01 1.337600203634E-01 -9.560101960759E-02 -4.617138584327E-01 4.742099698565E-02 5.227402687361E-01 8.082738268797E-01 -2.783232396042E-01 -2.377546111778E+01 2.701258312564E+03
 1.601881931513E-01 1.369079810121E-01 7.077102932664E-04 -3.666377845456E-01 2.817471812516E-01 -2.746988932421E-01 -1.960714951339E-01 -2.505893331970E-01 1.349458766997E+00 1.629792784475E-01 2.977475017281E-01 8.018787471570E-01 1.528735689791E+00 5.074570466468E-01 -1.695941911243E-01 -3.823992395575E-02 -1.990053410658E-01 5.044235191537E+00 2.149371548809E-01 -3.116256873589E-01 -5.187148805538E-01 2.396197636157E-01 5.143219520938E-01 1.596601503158E-01 -5.528187476235E-02 2.324567449291E-01 2.651808723975E-02 -2.899284860436E-01 -1.199927397932E-01 -1.351011301138E+00 1.672727280991E+02 -1.953630147624E+02 2.219313047399E+02
 1.980255112952E-01 -5.255886214352E-01 -1.634692504085E-01 1.756015846365E+00 -7.438508428838E-01 -4.302971432102E-01 1.831773611824E+00 5.036186502040E-01 6.024387534828E-02 -6.293031489450E-01 -1.600389190832E+00 8.944799455511E-02 -2.246440119578E+00 -2.568255738005E+00 -3.321763084214E-01 -5.420796900054E-01 3.038864529009E-01 8.683850656614E-02 -1.472713186891E-01 1.238467959982E+00 -1.941039659873E-01 -1.153111959309E+00 -1.448180983794E+00 1.917647704911E-02 6.416909226587E-01 -1.258987684154E+00 2.829595600874E-01 1.267948223354E+00 1.220351985225E+00 -1.252124701900E-01 4.894350184405E+01 8.023974790588E+01 2.573230259522E-01 2.702882856085E+03
 1.740243455350E+00 -4.025857509444E+00 5.330674344676E-02 6.271508978150E+00 -1.927122801622E+00 -5.771211070693E-02 3.331394933917E+00 2.935413829268E-01 1.790066656242E+00 -5.005131893816E-03 -5.750862281266E+00 7.841224098150E-01 -5.028749171492E+00 -6.701258491318E+00 4.803486380124E-01 -2.963047654661E+00 1.269903317392E+00 3.705153067656E-01 -8.728521703084E-01 4.286444497226E+00 -4.987406419178E-01 -4.912384638315E+00 4.861531391385E-01 1.437637450244E-01 -6.426339243630E+00 -3.519755514104E-01 -7.291009040197E-01 1.794258165893E+00 7.423011022453E+00 -1.331470378233E+00 -2.355224674937E+00 -1.888464117958E+00 1.262913709434E+00 2.565904237276E+02 2.938345383848E+03
 -1.941499153535E-01 3.328869375839E-01 1.690813933254E-01 -6.016478488485E-01 3.681871019212E-01 6.149183961459E-01 -1.685956990509E-01 8.388843570327E-03 3.771696583068E-02 -9.787004653271E-02 3.365640122172E-01 -9.153291659255E-02 5.975341034287E-02 2.253472683603E-01 9.533827246855E-01 3.524139915120E-01 -2.665295758430E-03 -1.493445984789E-01 6.503977975512E-02 -1.714903148403E-01 2.675187996863E-01 2.742776352393E-01 -2.296823942774E-01 -2.020286752818E-01 7.231984317752E-01 -1.055442722801E-01 -7.229336633155E-01 -3.013862584004E-02 -4.121811472417E-01 1.292473083687E-01 3.583336669655E+00 8.257802910312E+00 1.247044045496E+01 2.127087081320E+02 -7.033990706313E+01 1.689282726486E+02
 -2.102255242146E+01 -3.266339465094E+01 -5.251476914153E-01 3.507351381157E+01 5.275366102021E-01 4.530165209646E-01 -1.604389519545E+00 -2.130728471925E-01 -1.062032461956E+00 1.360254619292E-01 2.695725295962E+00 -3.424060879904E-01 2.776197809214E+00 3.390051251037E+00 -5.968734129179E-01 -1.267738176030E+03 -4.391083492639E+02 -1.768420244581E+00 3.574048135685E-01 -2.093935553950E+00 -2.340887747412E-01 2.456390183362E+00 2.528161491462E-02 1.737286579046E-02 2.590511527048E+00 3.726265507752E-01 5.326003168542E-01 -9.557660597662E-01 -3.407659468179E+00 5.305902864872E-01 -1.894326180570E+01 3.529563459865E+01 -1.328269242052E+00 7.393585324126E-01 2.682660212873E+00 -3.148017161407E-01 2.790344783012E+03
 3.759712340924E+01 5.934810153938E+01 5.166424650580E-01 -6.423545950632E+01 -2.735987597141E-01 3.791111699482E-01 2.234619353973E+00 3.170718923263E-01 1.300489364503E+00 -2.389559039097E-01 -3.551190369107E+00 6.292835797083E-01 -3.645111540279E+00 -4.493439771348E+00 6.672616795096E-01 -4.459019953144E+02 -7.276703497185E+02 3.582114632980E+00 -4.655432096831E-01 2.652740036827E+00 -2.757470890703E-01 -3.080286617417E+00 -1.074245724523E-01 1.740166920590E-01 -3.314089184028E+00 -5.107124239901E-01 -6.382331277868E-01 1.380885384395E+00 4.454834935142E+00 -7.534487101357E-01 -3.294190153230E+01 5.760536042888E+01 -6.287461034044E-01 -1.020203731081E+00 -3.377494165278E+00 3.623056867985E-01 3.252632625153E+01 2.804448307614E+03
 -6.226815065590E-02 -1.815897263231E-01 1.012512999721E+01 5.632195934854E-01 -1.040625115485E-01 9.920010513069E+00 -2.189052843996E-02 -1.399485564398E-01 -6.720510365747E-02 -2.434956256086E-01 1.652455272035E-01 -1.771826420558E-01 -6.281270201635E-01 -3.192007410251E-01 1.048988745372E+00 -4.515203863442E+00 3.819669851161E+00 -8.444663964561E+01 2.759989417863E-01 1.879551400716E-01 5.001870350518E+00 -4.320568193148E-01 -3.858450667437E-01 4.295934882868E+00 1.871734474978E-02 5.642856175300E-02 -7.858303781927E-01 1.498466880994E-01 1.194917539848E-01 2.828069452330E-01 -6.587388560284E-01 2.161446449818E-01 7.302207472050E+00 -2.683003046278E-01 -7.710469853450E-02 4.789323399998E-01 3.586721684864E+01 -3.932561117692E+01 1.943857727525E+02
 1.057591935652E-01 -1.582015125277E-01 -2.477753595118E-01 -1.841916772742E+01 -3.132757396520E+01 -2.178409868459E+00 6.666531846828E-01 1.155026767116E-01 3.897094041947E-01 -1.821837171597E-01 -3.791232156978E-01 3.076476081431E-01 -4.191626924279E-01 -7.300708599245E-01 -4.063493380727E-01 -4.052607827137E-01 3.935057583617E-01 3.448919531679E-01 -1.990789506741E-02 3.674553925847E-01 -2.903437171344E-01 -2.655558827210E-01 -4.575034921043E-01 -7.551605316519E-02 5.172695472517E-01 -4.580514146538E-01 4.041015845925E-01 3.659236819352E-01 1.630566889188E-01 -5.079871831106E-01 3.917750669422E+01 -6.956608109413E+01 3.863722902574E+00 -2.350022624789E+01 4.072305631985E+01 -3.568506804361E+00 3.959758921026E+01 6.503330036597E+01 -2.019949519623E+00 2.811150535006E+03
 3.956267424445E-01 -1.048724379602E+00 2.062704175060E-01 3.575558579535E+01 5.552869318338E+01 2.393298810926E+00 7.925016087134E-01 7.292880105659E-02 3.841956524585E-01 -3.402657708465E-02 -1.472631905145E+00 1.253676967254E-01 -1.468685261186E+00 -1.765537621559E+00 3.004459888666E-01 -3.711489454348E-01 4.677926436776E-01 2.329338257384E-01 -1.951617167928E-01 1.044195826449E+00 -1.270634312909E-01 -1.281597635408E+00 6.884030685939E-02 -2.180114465749E-01 -1.706797214885E+00 -5.763270309610E-02 -3.132408712669E-01 4.770336705351E-01 1.932112597490E+00 -2.312131202678E-01 -3.963984297489E-01 1.688216311898E-01 -2.288623333792E-01 -4.272267516302E+01 7.241393945406E+01 -3.526102778292E+00 1.376289834474E-02 -1.220292510458E+00 3.165175419467E-01 -6.756896760555E+01 2.747966757093E+03
 1.136603495610E-01 -1.420571775884E+00 -1.335703108619E-01 3.744695326006E+00 -1.409944008122E+00 8.169841801269E+00 2.221111942113E+00 8.211828999744E-01 -6.020756078716E+00 -1.019908939880E+00 -3.080823607334E+00 -3.726793779087E+00 -7.400953313292E+00 -4.100920837156E+00 4.970823280925E-01 -6.215070894358E-01 4.652531025159E-01 -1.051728126355E+01 -9.762598306159E-01 2.631734101004E+00 2.190814293480E+00 -1.560428147610E+00 -2.286453843376E+00 3.503857586344E+00 -1.136123123105E+00 -9.309243505528E-01 -3.850737560456E-01 2.274103577863E+00 2.604535008559E+00 5.789830495373E+00 5.982105558848E+00 -3.799332423210E+00 4.722537159810E+00 -2.988513123332E+00 -3.076360071711E+00 1.405607742656E+01 2.408124315783E+00 -1.467577232893E+00 1.043621715165E+01 1.507108431570E+02 -7.162631632837E+01 2.264024640874E+02
 -1.334258563006E+00 3.408078086860E+00 8.589070459038E-02 -4.649747946870E+00 1.546495618559E+00 6.033766742364E-01 -1.446319061614E+00 6.861519113044E-02 3.428186841429E-01 -4.716648363450E-01 3.892060620148E+00 3.355794228142E-01 3.488294654903E+00 3.760981706618E+00 7.419725511342E-01 2.267800132712E+00 -1.107389111535E+00 2.349506536938E-02 7.925445063374E-01 -2.878155799745E+00 6.400218572727E-02 3.345474515709E+00 -1.467665457208E+00 -8.872451857433E-02 6.705929256375E+00 -8.647791415526E-01 -3.035293475146E-01 -6.413483926888E-01 -5.459824863355E+00 -3.781589368658E-01 -1.302390668987E+03 4.574929921650E+02 -1.273088021194E+02 -5.113423791355E+02 -1.407025957368E+01 -4.573248848499E+01 -2.372817426667E+00 3.011849751710E+00 -2.412422083633E-01 -3.646659984509E-01 1.476064381176E+00 -1.226156896290E+00 2.544678979380E+03
 -1.552158424843E+00 3.912200244170E+00 1.577464612626E-01 -7.496349952193E+00 2.481793880609E+00 1.265974576973E-01 -5.234795310009E+00 -1.013550175681E+00 -1.175295393483E+00 9.790747741956E-01 6.891329870107E+00 -5.529404136365E-01 7.785373966006E+00 9.169999996507E+00 -3.288435096111E-01 3.030753022888E+00 -1.441707177057E+00 -1.717827686700E-01 9.419633069437E-01 -5.245635411927E+00 4.301426692986E-01 5.588370707769E+00 1.886458605799E+00 -1.929501033363E-01 4.119888022301E+00 2.125081330113E+00 4.581990111727E-01 -3.358022687230E+00 -7.682850041590E+00 7.572390593463E-01 4.908560010827E+02 -7.613581100984E+02 7.318953536095E+01 -4.821653507247E+01 -1.653241266886E+03 5.230087422680E+01 -3.161055046402E+00 4.201571057980E+00 4.216753303203E-01 8.056118787271E-01 1.559839530298E+00 2.536562368712E+00 -1.323250135313E+02 2.799565404329E+03
 -3.514050474426E-01 1.474703780298E-01 -3.669538386874E-01 5.156024799864E-01 -5.055427825738E-01 -8.329707679672E-01 5.201104874964E-01 4.211896650295E-01 -2.656279024571E+00 -4.722375727448E-01 -1.058526790125E-01 -1.357078800809E+00 -1.664127436821E+00 -3.728425527195E-01 -1.471832419781E+00 2.341580576694E-01 9.553234212970E-02 -4.605244697778E-01 -1.195106212861E-01 1.117484668666E-01 4.459007522204E-01 1.984735108703E-01 -1.313281198159E+00 5.723964698018E-03 1.092548170785E+00 -6.471528733257E-01 1.202219790853E+00 6.350098832876E-01 -6.457985234898E-01 2.152487665501E+00 -1.317955666506E+02 7.352297995413E+01 -1.058495637482E+02 -4.427419102773E+01 4.990767001995E+01 -8.675999328545E+01 4.955619939200E-01 -9.692654677190E-01 4.748900653909E+00 4.206193007706E-03 -1.313107878061E-01 -1.712573663991E+00 2.855592618536E+02 -6.394868117344E+01 2.894857021422E+02
 4.932174904372E-01 -1.278367899547E+00 1.031786569502E-01 2.210647318306E+00 -5.032053276748E-01 7.061347288939E-01 1.481440943724E+00 2.258216331339E-01 1.029294558127E+00 -2.517304021362E-01 -2.164803606262E+00 4.819930973685E-01 -2.163094444947E+00 -2.853525637140E+00 6.436691652342E-01 -2.056384189887E+01 3.580394418105E+01 -1.066548035425E+00 -2.043378887068E-01 1.640327444101E+00 -4.671211821584E-02 -1.858936959742E+00 -3.475432459593E-01 1.325263219021E-01 -1.576075037491E+00 -5.349009793536E-01 -5.894954584828E-01 9.237040395268E-01 2.628040410204E+00 -6.397036836943E-01 -1.247106585951E+03 -4.329056290256E+02 -3.587197818614E+01 -1.004583404966E+00 -1.758462438998E+00 1.059872371052E+00 -1.163512149726E+03 4.228892034786E+02 -2.890731954672E+01 -4.659020981510E+02 -2.001421501035E+01 -1.837032024821E+01 -1.964829018932E+01 -3.318881684413E+01 -1.634962729967E-01 2.766604420088E+03
 -3.520532472974E-01 6.772555487904E-01 -9.046122865916E-02 -9.186963744842E-01 1.220300306505E-01 -1.243212361517E+00 -4.804534329804E-01 2.063619902956E-02 -7.401381462296E-01 -5.918766592357E-02 9.603950814708E-01 -3.879452686161E-01 6.940890902030E-01 1.124606221931E+00 -4.546594966069E-01 -3.237429889351E+01 5.848004932439E+01 -1.897159121066E+00 1.278029637863E-01 -7.029458620453E-01 2.226943855124E-01 8.359380517776E-01 -2.444784987761E-01 -7.307867531425E-02 1.276619536407E+00 -5.842843640013E-02 4.334330507540E-01 -2.591622655515E-01 -1.400133499617E+00 5.045441083925E-01 -4.450913393937E+02 -7.214787477846E+02 1.059808980810E+01 2.576724917060E-01 7.556241885554E-01 -6.968076303251E-01 4.236105527068E+02 -7.167917401925E+02 1.998563843980E+01 -4.743826186480E+00 -1.465918585826E+03 3.963587736311E+01 3.709262058749E+01 6.327037174940E+01 -1.171708494648E+00 1.918292765314E+01 2.782457499268E+03
 2.045032291823E-01 9.765538863491E-01 4.629070510703E+00 -2.234487877902E+00 1.336733800550E+00 -9.137229067513E+00 -8.839757090844E-01 -5.814662790589E-01 3.495980610504E+00 3.093642167738E-01 1.685648891196E+00 2.165422632503E+00 4.271920723269E+00 2.104040575764E+00 -3.236181890793E-01 1.242470805275E+00 -1.292904458219E+00 9.795204053256E+00 6.548783509933E-01 -1.367943704724E+00 -1.293487986140E+00 1.261575175034E+00 9.522434701257E-01 4.359946140782E-01 1.256387281680E+00 4.400394925431E-01 2.030725215683E-01 -9.298858920336E-01 -1.593284524244E+00 -3.419095407394E+00 -3.562806297535E+01 1.280303743935E+01 -8.186723600387E+01 1.456978190265E+00 3.202632531552E+00 -1.176473002568E+01 -3.366258962119E+01 2.280580889158E+01 -8.238254291652E+01 -1.417925817263E+01 3.521792585150E+01 -1.003176829882E+02 -4.982475797495E+00 -8.127172655967E+00 6.891887207869E+00 7.701659776036E+01 -6.382010194315E+01 2.047273384160E+02
 -8.552265878203E-01 1.918351243718E+00 2.537764346149E-02 -3.010282668327E+00 9.885017779953E-01 -1.026325917555E-01 -1.695488997794E+00 -1.485258542264E-01 -8.802954577269E-01 2.672464018111E-02 2.731838482668E+00 -4.220262233401E-01 2.370726138454E+00 3.216748896189E+00 -7.119621585203E-03 1.433591655535E+00 -6.724919062148E-01 -2.935913611674E-01 4.096967572759E-01 -2.056837284428E+00 3.105641367064E-01 2.313781086824E+00 -1.562210737151E-01 -7.687042173395E-02 2.896596136482E+00 2.358271976147E-01 1.479767773367E-01 -8.879917636561E-01 -3.450839510147E+00 7.296907055967E-01 2.762761856120E-01 2.755275364136E-01 4.121407626883E-01 -1.427099262337E+03 -5.046555930074E+02 -9.675995456849E+01 -1.271129606792E+00 1.667751324518E+00 6.843446784243E-02 -1.335975397712E+03 4.619878445296E+02 -8.872773119224E+01 4.757413090709E+01 -3.925150675567E+00 3.358280316520E+00 4.166993601884E+01 -7.608928164604E-01 -3.234559569350E-01 3.045879786574E+03
 5.882124049231E-01 -1.245219851019E+00 2.092720887098E-01 -7.495384127651E-02 2.337858239735E-01 4.005496058594E-01 -2.017448235638E+00 -9.173719755758E-01 2.363398088435E-01 1.347161160414E+00 2.219069035002E-01 -2.537708727819E-02 1.912649117871E+00 1.880760870210E+00 4.308525176061E-02 -6.006381713704E-01 1.713304114779E-01 7.482486656655E-02 -2.060490073226E-01 -2.612829999025E-01 8.146030310029E-02 -1.726697662658E-01 3.359089343345E+00 6.908143363771E-02 -5.093968067992E+00 2.565936586125E+00 -2.567234190497E-01 -1.705066738429E+00 1.387073448639E+00 -1.076638801062E-01 -3.064533558266E+00 7.318983759742E-01 2.892300187682E-01 -5.035273733602E+02 -8.396841088486E+02 -1.982768534338E+01 2.241439752264E-01 -4.595404998770E-02 1.585252761915E-01 4.489696584950E+02 -7.598456017963E+02 4.553455452882E+01 -8.374700775036E+01 -4.730421154512E-01 -6.351370251294E+00 7.420753922322E+01 -1.572995714398E-01 5.472570903843E+00 3.951558878745E+01 2.533668867597E+03
 1.699677798494E-01 4.101952249839E-01 1.541885733880E-01 -1.741588751529E+00 3.474724249607E-01 4.962904695234E+00 -9.286714579441E-01 -5.355678733999E-01 2.564012619718E+00 3.697366114868E-01 1.020396388318E+00 1.520681268850E+00 2.729492572620E+00 1.453258136773E+00 3.123769533036E-01 1.254773380115E-01 -1.867724557230E-01 6.191421586418E-01 3.683532983868E-01 -8.195250764217E-01 -7.622506657466E-01 8.144964108657E-01 1.214413079928E+00 2.371602175988E-01 8.989436918789E-02 6.874347910239E-01 -1.938668157000E-01 -8.141664957287E-01 -7.248752679848E-01 -2.317893762216E+00 -1.801586116389E+00 1.542245828558E-01 -8.581793660131E+00 -9.479401750824E+01 -1.776018082913E+01 -7.607784738873E+01 -8.262017678876E-01 1.577999293334E+00 4.144819210995E+00 -9.247799207048E+01 4.837289387815E+01 -9.755293083801E+01 7.728021199498E+00 -6.228762771466E-01 1.072152270613E+01 1.112320139001E+00 -9.883391720173E-01 1.626260976352E+01 2.075762868152E+02 -5.517721148815E+01 1.723980004006E+02
 1.124418122617E+00 -2.594267666550E+00 7.215925238408E-02 -1.235877773210E+03 4.553228659833E+02 -2.539843322375E+01 2.211023586115E+00 2.471185636401E-01 4.694764626633E-01 -9.952720688144E-02 -3.827717306012E+00 9.226573334936E-02 -3.936597551901E+00 -4.530158456266E+00 -1.337819371731E-01 3.912383922675E+01 5.665142427013E-02 9.915910779661E-01 -6.393462415424E-01 2.811300825135E+00 -3.498842030718E-01 -2.348171200404E+01 3.714137227940E+01 -6.521710292459E-01 -4.259543284067E+00 -1.989194580835E-01 -6.713094940684E-02 1.398978741216E+00 4.812438914288E+00 -1.951644092835E-01 -2.111497433568E-01 -5.314292598584E-01 -4.297928521187E-01 -5.994228532389E-01 -4.254596289459E+00 1.724840305323E-02 1.628602895589E+00 -2.418523841963E+00 6.003042029891E-01 -1.125676818766E+03 -3.799107872042E+02 -4.662204537985E+01 3.216834833645E+00 4.266103825896E+00 4.259362823801E-01 3.354427377235E+01 6.888448024661E-01 1.980854127488E+00 -1.618073841826E+01 -3.389375230222E+01 -2.318910084211E-01 2.732202255712E+03
 -1.526847929158E+00 3.886944296245E+00 -5.972600156307E-02 4.617797275794E+02 -7.585304849865E+02 6.291145992438E+00 -4.395238411356E+00 -7.098260086089E-01 -1.290519558678E+00 6.540289627966E-01 6.305508614403E+00 -5.975001831128E-01 6.778563703352E+00 8.096788470186E+00 -3.923252666878E-01 6.958922610612E+01 -2.108997816819E+00 8.786320527261E-01 8.675340207605E-01 -4.775054969090E+00 5.006602228382E-01 -2.826726880549E+01 6.156657568550E+01 -4.825264993348E-01 4.874237252912E+00 1.372506196049E+00 5.134952905722E-01 -2.774233111952E+00 -7.369100381302E+00 9.496825659765E-01 -2.534858976369E-01 1.059900893958E+00 -4.222843922608E-01 1.946263793119E+00 6.052353322902E+00 -3.298945464833E-01 -2.725675446565E+00 3.643601390672E+00 2.917279280886E-01 -3.802814227764E+02 -6.562800074941E+02 -9.148536516654E+00 -4.193850572036E+00 -7.765861882488E+00 7.539239358560E-01 -6.088330364279E+01 -5.825033945015E-01 -6.025223836206E+00 3.001742653382E+01 5.886142518090E+01 -1.370272981214E+00 -2.435455389650E+01 2.824519984767E+03
 -1.366201039296E-01 2.636659564685E-01 4.607678488764E+00 -2.623722217420E+01 6.447001047744E+00 -8.482208937496E+01 -6.509127802174E-02 7.992724521117E-02 -3.977541167997E-01 1.508018446456E-01 5.500338538301E-02 4.522727290957E+00 9.085596675619E-02 2.051329658370E-01 -4.093015055070E-01 1.350463763494E+00 -2.518777397320E-01 8.853253176829E+00 -8.551252818643E-02 -2.705080796497E-01 1.318303239636E-02 -6.624737235784E-01 6.264168963559E-01 9.901401932214E+00 -8.128970397881E-02 4.101955481345E-02 2.929878243823E-01 -7.767221626602E-02 -9.309226329160E-02 2.826508487052E-01 3.662246112707E-01 4.335637412275E-01 4.007645270422E+00 -6.123006907634E-01 8.861634113563E-02 5.149191040601E+00 -4.860777167999E-01 -7.268259452432E-01 -8.898858643691E+00 -4.359191701990E+01 -1.421911980134E+01 -8.124555960321E+01 2.661539707847E-02 -6.490427033873E-01 7.123993016686E-01 2.699346063606E+00 8.890131543814E-01 7.298339226778E+00 -2.419472337029E+00 -3.459178457230E+00 9.800344640339E+00 7.956242194495E+01 4.033460457706E+01 1.913776223509E+02