#BIOSYM hessian 1
@Type: Hessian Update
@Units
 distance: 	A
 energy: 	Kcal/Mol
#header
@natom 66

#label
C1      C2      C3      C4      C5      C6      C7      C8      C9      C10     C11     C12     C13     C14     C15     C16     C17     C18     C19     C20     C21     C22     C23     H24     C25     C26     C27     C28     C29     C30     C31     C32     C33     C34     C35     C36     C37     C38     C39     C40     C41     C42     C43     C44     C45     C46     C47     C48     C49     H50     H51     H52     H53     H54     H55     H56     H57     H58     H59     H60     H61     H62     H63     H64     H65     H66

#element
C  C  C  C  C  C  C  C  C  C  C  C  C  C  C  C  C  C  C  C  C  C  C  H  C  C  C  C  C  C  C  C  C  C  C  C  C  C  C  C  C  C  C  C  C  C  C  C  C  H  H  H  H  H  H  H  H  H  H  H  H  H  H  H  H  H 

#matrix
198
 2.779298951787E+03
 -1.657582924484E+01 2.806957106434E+03
 7.681295337297E-01 -1.327288613539E+01 1.917608402182E+02
 3.972008963974E+01 6.663009704137E+01 -3.965066037874E-01 2.795878679633E+03
 -3.857338052954E-01 -9.094118060195E-01 6.937207748262E-02 -2.102181821947E+01 2.768940889567E+03
 8.388924075065E-02 6.974811184585E-02 8.340320335374E+00 1.148010517413E-01 -1.357465351815E+01 1.908951992881E+02
 -1.157954297764E+01 3.233502026771E+01 -4.090688675426E-01 -3.469048701656E+00 1.311081426108E+00 -1.541953623102E-01 2.815286097813E+03
 -2.965557227505E+01 5.991209018491E+01 -4.523269122642E-01 -3.354973463896E+00 1.940309827241E+00 -1.461162453620E-01 -1.975563374240E+01 2.726680554572E+03
 -5.299931810419E-01 -6.525041916961E-02 8.591898918146E+00 2.800639221496E-01 5.318969949508E-03 7.230121267996E-03 1.990073221190E+00 -1.282545570835E+01 2.029524604811E+02
 3.610301042659E+01 -6.594895806405E+01 3.886546166349E-01 -1.979506345803E+01 3.674237849606E+01 -2.188772776384E-01 4.083187167350E+01 6.131257643013E+01 -3.689783384426E-01 2.806345235522E+03
 -4.595552507979E+00 1.703060481019E+00 9.440148072176E-02 -3.154661757453E+01 6.053310760522E+01 -2.392738311677E-01 4.292791834638E+00 -3.216809598983E+00 -4.040131635959E-01 -3.907321356091E+00 2.783054732936E+03
 2.903123025662E-02 2.569951737919E-02 9.023277003917E+00 1.409863304410E-01 -2.803587567241E-01 8.911132769186E+00 4.481921480728E-02 4.768707836211E-02 9.596133829749E+00 6.188720189287E-02 -1.402090566494E+01 1.935836514204E+02
 -2.266105279413E+00 1.184088078278E+00 4.781833013561E-02 -6.636454110324E-01 2.541889597004E+00 -2.076091413283E-02 4.379948885753E+01 -9.358295536924E+01 9.475510508430E-02 -2.986904099588E+01 2.739782361604E+01 -2.497934126321E-01 2.610727042839E+03
 4.719505811163E+00 -2.260835130564E+00 -1.562589749568E-01 9.570136343627E-01 -3.562674520472E+00 -1.114623241025E-02 4.851888912186E+00 1.389886593595E+01 1.177896451293E+00 -2.018964120938E+01 7.838119655481E+01 -2.414122015305E-01 -1.588425435325E+02 3.015411920010E+03
 1.385921720664E-01 7.097957005398E-02 6.642711137953E-02 -1.273841162519E-01 1.346708127415E-02 -9.233393450762E-04 -8.221886624523E-02 -1.277232279822E-01 1.111576070444E+01 -5.310022648482E-02 -2.852571972249E-01 1.097638060421E+01 8.772783967718E-01 -1.651589197121E+01 1.702708935194E+02
 -1.218852458377E+03 4.401517254582E+02 -2.474488283221E+00 -4.635632331922E+02 -1.220588342327E+01 -1.710548329622E-01 -6.623262736083E+00 -4.848947762892E+00 8.812315203156E-01 -3.759325084115E-01 1.192769488661E+00 2.626201212569E-02 1.912130688577E-01 -1.377484170805E+00 -1.665860450224E-01 2.814966460714E+03
 4.341601228035E+02 -7.326478293358E+02 3.269385774389E+00 -1.101655297371E+01 -1.430091091135E+03 6.913643590834E+00 2.087528412508E-02 -2.328651951820E+00 1.164785002999E-01 -2.720139451369E+00 -1.607522184558E+00 -8.125870673690E-02 -3.533282529404E+00 5.230504647335E+00 -1.271358146445E-01 1.222525865991E+01 2.772467167639E+03
 -2.424386408561E+00 3.383592333332E+00 -8.263101462276E+01 6.073872695752E-02 6.871678930967E+00 -8.059014700271E+01 4.983917101867E-02 7.347046681538E-02 4.745616900397E+00 -5.658133879658E-03 -5.119189146174E-02 -8.982436087922E+00 -4.040901944889E-02 1.260049246457E-01 -3.736707198870E-02 7.543321639083E-01 -1.280778093681E+01 1.917111893151E+02
 -1.200480634281E+03 -4.135463012946E+02 1.803586794641E+00 6.724523364063E-01 -4.494833587262E-01 -3.234028633006E-03 -1.235113592296E+03 4.435089350335E+02 -2.664341010694E+00 -4.745983694689E+02 -1.179276316110E+01 -8.801962711275E-02 -6.785216004043E-01 -2.561106692025E-02 1.066876527680E-01 -1.922923886140E+01 -3.165292571421E+01 1.829099259255E-01 2.794386703658E+03
 -4.067569231082E+02 -6.975594774303E+02 3.032160479447E+00 -1.391158357883E+00 -2.116062225568E+00 -6.031230615970E-02 4.441288743469E+02 -7.365369482265E+02 3.890063472475E+00 -6.526654887181E+00 -1.446959333942E+03 7.395690889295E+00 1.464147054691E+01 -2.016413497583E+01 -2.013881036342E-01 3.365178201120E+01 6.086548852006E+01 -2.307368115352E-01 -1.844380358035E+01 2.759344572871E+03
 2.123186428570E+00 2.874506215658E+00 -8.066058698745E+01 -1.053017791103E-01 -9.930896605828E-02 -8.933409826584E+00 -3.170109945732E+00 3.158155843770E+00 -8.646601982730E+01 9.262459404481E-02 7.709565256435E+00 -8.279489571508E+01 2.907506754958E-01 -8.590438355867E-01 -1.014579065823E+01 -5.858315993126E-01 -2.386225160051E-01 8.574557708376E+00 7.385470150334E-01 -1.392600600388E+01 1.940373070615E+02
 -5.429771180684E-01 1.457445702630E-02 1.030305730417E-01 -1.225795936119E+03 -4.194327876707E+02 2.209076785032E+00 3.359627039995E+00 3.186596969519E+00 -4.418953294596E-01 -1.213940759295E+03 4.381143447403E+02 -2.333049284915E+00 1.909519528621E+00 -2.284842723629E+00 1.889983222564E-01 3.875762173875E+01 -3.740800092044E-01 -6.094164112432E-02 3.940792835851E+01 -7.244634530576E-01 1.787755917404E-01 2.802919947524E+03
 -1.599973165652E-01 3.605130839329E-02 -1.633734968168E-02 -4.221571827613E+02 -7.027054956400E+02 3.344917575049E+00 6.424697500712E-01 1.038750770857E+00 -1.416067204349E-01 4.399200158463E+02 -7.362951765109E+02 3.582926160290E+00 -2.660729813167E-01 2.955858164779E-01 9.431024580430E-02 -6.656588573447E+01 4.360047040672E-01 4.380472664330E-02 6.762403362659E+01 -4.485342907478E-02 1.209814476810E-01 3.780304628580E+00 2.796904374470E+03
 -2.081401414899E-02 -5.949104868344E-02 -8.920807427714E+00 2.296511552682E+00 3.306120860581E+00 -8.196538073244E+01 -5.452873713360E-02 -2.645072767238E-02 4.575333120735E+00 -2.344273161928E+00 3.651791015918E+00 -8.299862187852E+01 1.838162177463E-02 -2.575586885285E-02 4.858199661590E+00 3.025904849133E-01 7.325568156878E-02 8.623385383853E+00 -3.459184707040E-01 7.374554773483E-03 9.023658338319E+00 6.965893908012E-02 -1.485494699931E+01 1.938108152124E+02
 -1.013857956329E+01 4.148974832263E+00 1.928263272865E-01 -2.122453051242E-01 3.567327608162E+00 8.143194321960E-02 -1.252562023459E+03 -4.419456803766E+02 9.189009544082E-01 -2.090088793576E+01 -2.333776936951E+01 -2.777482030138E-03 -6.243238436945E+02 5.799366776929E+01 -4.516986985316E-01 5.544892149690E+00 -6.734928251512E+00 -8.330013690964E-02 -2.081429632522E+01 -7.841326912727E+00 7.931826341234E-01 1.131033777359E+00 -1.562897056944E-01 5.837271120534E-02 3.145256812380E+03
 -5.521437122489E+00 -1.224712484628E+00 3.315757103525E-01 4.690327716976E+00 -2.929315633679E+00 2.260560196117E-01 -4.053884066617E+02 -7.330591334126E+02 1.470641857090E+00 1.105052531385E+01 2.423514238233E+00 1.391901057715E-02 9.456197621554E+00 -1.839704549235E+03 1.054764549505E+01 7.412305413876E+00 3.043914410089E+00 -1.157274827929E-01 3.438570569464E+01 5.749100648566E+01 7.657473674313E-01 -4.414186022369E+00 -1.278415460355E+00 9.071998768487E-02 -1.285625915152E+02 3.331038081035E+03
 -6.325854980910E-01 6.998469875302E-03 4.442127133668E+00 2.645247485844E-01 3.431609942497E-02 4.224803620613E-03 2.805319487003E+00 3.895778377295E+00 -9.032632156854E+01 2.786775255426E-01 -7.766289685943E-01 -1.031137316445E+01 -3.362165443841E-01 1.192435997924E+01 -9.168173585152E+01 7.240401398069E-01 1.171331210567E-01 9.320388745133E-02 -2.914811397961E-01 6.520623755444E-01 9.503389944016E+00 -3.649833220226E-01 -1.284242241065E-01 -5.208675213184E-02 5.618168325406E-01 -2.020702898419E+01 2.151932465237E+02
 6.633637613622E+00 -2.569159347419E+00 -1.299787493065E-01 -2.673601044332E-01 -2.964463797460E+00 -5.650938374042E-03 -6.606879998761E+00 1.093008013872E+01 8.568029989145E-01 -1.225438211700E+03 -4.142997257558E+02 2.380052209415E+00 -1.241317062181E+03 4.230121678281E+02 -2.192562838569E+00 -1.904069296402E+00 4.898314377410E+00 6.716728185459E-02 3.973446707506E+01 -2.219241660971E+01 -4.887458161102E-01 -2.109693969984E+01 -3.362329948463E+01 1.408816043183E-01 1.055301539547E+02 -1.659011891056E+01 3.795124464810E-01 2.820018473605E+03
 -3.997354191421E+00 2.169787165169E+00 5.787356454703E-02 -5.540839474791E-01 2.125815317429E+00 1.620752698039E-02 7.673417558553E-01 -6.986191609472E+00 -3.649776951034E-01 -4.402463747367E+02 -7.297188006392E+02 3.349310217501E+00 4.337137739901E+02 -7.679477386689E+02 3.816632536035E+00 6.213453739037E-01 -3.842636132824E+00 -6.914795191150E-02 -6.840450326915E+01 1.470669010857E+01 3.306552701648E-01 3.626536591211E+01 6.021023115832E+01 -2.743532512978E-01 4.985096901868E+01 1.308423472327E+01 -5.636713513789E-01 -1.379178744323E+01 2.859288997316E+03
 1.015007508604E-02 2.324590849273E-02 4.440412332546E+00 -2.236836056647E-03 2.234391374454E-02 4.581793175499E+00 -6.572563428701E-02 -1.886066780465E-02 -1.030209944130E+01 2.308641469137E+00 3.383962958265E+00 -8.452194364882E+01 -2.050296876003E+00 3.716249673911E+00 -7.984026088224E+01 1.075634399371E-02 1.895517484470E-02 1.177616781080E-02 4.021778058649E-01 8.988122649875E-04 9.652801988982E+00 -1.957437046367E-01 -2.532739030577E-01 9.001328692405E+00 -4.070854374322E-01 -4.841558021843E-02 1.089619797597E+01 -6.102099970727E-02 -1.427373563339E+01 1.866933858204E+02
 9.170007664713E+00 -8.048266586067E-01 -1.701576758678E-01 -4.046562009331E+00 8.346419317665E-01 -1.833346620627E-01 -2.918231841173E+01 -2.166439902073E+01 1.055744651974E+00 2.697458123977E-01 7.798724445986E+00 -4.847600025040E-02 -1.201578481689E+00 1.340325155282E+00 -1.453423807078E-01 -7.482098880064E+00 1.433634341895E-01 1.605924842578E-02 8.402157459985E-01 -8.062294778390E+00 -3.522394334093E-01 3.452822983266E+00 1.061139919364E+00 -4.281054654671E-02 9.820662915684E+00 3.139809935068E+01 8.113415942421E-01 -7.711289964143E+00 2.363796775625E+00 -8.441215564986E-02 2.720757531197E+03
 -2.764793912778E+00 -1.889998709063E+00 2.285079568568E-01 4.384080167447E+00 -4.425133877941E+00 1.881929025922E-01 2.759860442358E+01 3.299262572430E+01 -1.822519865027E+00 1.459691389005E+01 9.522811625827E+00 1.558587654305E-02 2.667995242573E+01 -3.993406653597E+01 6.271457536410E-01 5.835460348308E+00 5.059061560979E+00 -2.499315124637E-02 -2.852439783647E-01 -1.334952407081E+01 7.195994368262E-01 -5.115964809867E+00 -5.259787250403E-01 8.042037411693E-02 4.130429335481E+01 -4.817335553704E+01 -1.221056594261E+00 -3.034868755910E+01 2.416415380004E+01 -8.297909766598E-02 -6.009155221023E+00 2.736042033388E+03
 1.441243887403E-01 -5.859715592102E-02 2.398386542141E-02 -1.391475778125E-01 7.088833521554E-02 -8.423302156261E-04 -5.551050762086E-01 -4.929437786884E-01 -2.115994954560E-01 -8.117907004435E-02 1.241666909828E-01 -1.101369743300E-02 -6.544268243385E-02 -5.735313758458E-02 6.766742374049E-02 -1.550464847258E-01 3.147652317163E-02 4.509483421279E+00 3.198463796666E-02 -4.963847915733E-02 1.315811167110E-01 1.179150246839E-01 1.086665772323E-02 1.865885419570E-02 1.139862923474E-01 8.182953505191E-01 -1.934294746404E-01 -3.557195731984E-02 -4.347919957420E-02 -2.091135374004E-02 -1.181707649522E+00 -8.623747890083E+00 1.697403675470E+02
 -8.102937410947E+00 2.703498227572E+00 1.448511140075E-01 6.583159632346E-01 3.138289203586E+00 3.105204765263E-02 1.027849880074E+01 -6.321467610129E+00 -8.124129202441E-01 -1.439142346010E+01 -1.931566783800E+01 -3.419109761386E-02 -2.299773407252E+01 3.680339307900E+01 -6.803911724301E-02 3.979955977244E+00 -5.278205378429E+00 -8.828210185225E-02 -4.315652218780E-01 2.352681228049E+01 5.083557516272E-01 8.853896291109E-01 -3.867642137313E-01 6.117645160256E-02 -5.368354996890E+01 8.739440940954E+00 -6.768165186190E-01 3.853704875397E+01 -2.641222598221E+01 1.106640329624E-01 5.911157874923E+01 9.896183146058E+01 1.511893478199E-01 2.712960150765E+03
 -7.377580164553E+00 2.958087052253E+00 1.980611413312E-01 -4.720217175021E-01 3.883697289806E+00 3.108658631933E-02 2.734864196008E+00 -1.336971865366E+01 -1.310691965883E+00 -1.716863157711E+01 -2.109469056938E+01 -4.492011066925E-02 -2.958804483202E+01 4.714352794439E+01 8.348561267272E-02 3.284526797211E+00 -6.085748076943E+00 -1.281173674632E-01 -3.669059679569E-01 2.550237644465E+01 8.272829618351E-01 2.003719240006E+00 -3.980885666549E-01 7.184337892744E-02 -6.450106027029E+01 1.905850139892E+01 -1.257097933004E+00 4.446556162725E+01 -3.057831754515E+01 8.297294728240E-02 5.890994639404E+00 3.972047675731E+01 4.611063016754E-01 2.271133755334E+02 2.796489507886E+03
 2.568763742720E-01 -8.279275789766E-02 4.412734687457E-02 -1.131627906590E-01 -4.126672173780E-02 -3.611468277382E-03 -5.424176254619E-01 -2.984092433014E-01 -4.639505354173E-01 1.477210197928E-01 3.583381959098E-01 -2.823148737013E-02 3.164209691226E-01 -6.651131666764E-01 1.426880520967E-01 -2.365520458804E-01 6.976777053563E-02 -1.445168085688E-01 2.537875243487E-02 -3.503700340560E-01 2.682139361991E-01 9.287878700581E-02 4.697411045368E-02 8.469302905855E-02 8.584924853019E-01 5.817273703633E-01 -3.976077952669E-01 -5.986179420508E-01 3.524130877465E-01 -3.678480682211E-02 -1.745922233496E-01 2.953780304919E-01 1.182551662271E+01 -2.641605058181E+00 -1.136992261408E+01 1.259847665772E+02
 -2.088563407389E+01 -3.453139985424E+01 1.519891342655E-01 3.932983696856E+01 -9.643468441522E-01 9.572918296905E-02 4.252567975712E+00 3.531155950234E+00 -3.021700072206E-01 9.388502812211E-01 1.197049719951E-01 5.410454400830E-03 2.207081991428E+00 -2.791893948369E+00 7.021676506891E-02 -1.251506180142E+03 -4.368807764656E+02 1.668319637329E+00 1.661953949986E-01 -1.368604883274E-01 8.249085931279E-02 -5.646386690849E-01 -8.079188890033E-02 2.260489495844E-02 1.550211650820E+00 -5.443822354638E+00 -2.092836511098E-01 -1.578261661020E+00 1.352865993259E+00 -3.203536895690E-03 -1.423646422751E+01 2.745338471467E+01 -1.242874225343E-01 8.682239702840E-01 2.356518761610E+00 8.432012684305E-02 2.787021769313E+03
 3.340949897513E+01 6.083141055776E+01 -1.172986824280E-01 -6.733177925269E+01 8.410468001583E-01 5.951439177488E-02 5.743179729876E+00 3.453670218699E+00 -6.893215755290E-01 -9.401366994994E-01 -2.826288815564E+00 3.061326739858E-03 -1.363405776012E+00 2.796080753804E+00 1.990489270221E-01 -4.394520896360E+02 -7.269544346848E+02 2.793397158967E+00 -3.352907909809E-01 3.259103405339E+00 3.478153180559E-01 -5.304046299180E-01 -1.967527923307E-01 6.002073556642E-02 -6.255446331319E+00 -4.896420976455E+00 -5.787056686818E-01 4.052208076040E+00 -2.128476432365E+00 3.931993089770E-04 -2.691651461417E+01 5.500528630358E+01 -1.896799576904E-01 -5.133116873363E+00 -4.722979966469E+00 1.565225042598E-01 1.758886376233E+01 2.793256973099E+03
 -2.097462703412E-01 -2.875850881355E-01 9.731556942412E+00 3.530336329502E-01 4.014919876994E-02 9.306765182240E+00 -3.061411456443E-02 -3.837322707737E-02 9.783809428828E-02 -4.241548936071E-02 8.471029439154E-03 3.630425372985E-03 -4.784801822911E-02 8.897363158909E-02 -2.791303334471E-02 1.675929471884E+00 2.955312168306E+00 -8.335732462395E+01 3.593433329761E-02 4.473057201372E-02 4.522747830578E+00 -1.203938821139E-02 -1.088179891914E-02 4.542321551004E+00 -2.380381310308E-02 1.029531563648E-02 9.204421935687E-02 5.540150601329E-02 -5.333650789248E-02 3.996233065420E-03 4.995608417269E-02 -1.914679768463E-01 8.801143049126E+00 -3.314702943814E-02 -7.780911889427E-02 6.932471599201E-02 6.712947084619E-01 -1.213798261521E+01 1.912714759549E+02
 -8.235181829372E+00 3.128931671541E+00 1.498540191232E-01 -1.857547082188E+01 -2.801756216148E+01 1.806770178010E-01 8.059164112572E+00 -9.247617992598E+00 -1.011479702796E+00 -1.631874570832E+01 -2.108846397309E+01 -2.512112769298E-02 -2.684033716634E+01 4.211537203656E+01 -4.579905714197E-02 3.524572377665E+00 -6.377194111456E+00 -8.175218189611E-02 -5.756880220065E-01 2.549610555691E+01 6.152872434532E-01 1.336008083146E+00 -2.827346698929E-01 3.103018444604E-02 -5.954854855891E+01 1.332946680249E+01 -1.084491774282E+00 4.308588327763E+01 -2.969370515911E+01 9.163511610569E-02 4.918307726225E+01 -3.895343862626E+01 2.376416712653E-01 -6.999095729332E+01 -1.081118778276E+01 3.530958466264E-01 4.079800270926E+01 6.154980427733E+01 -3.592501965465E-01 2.712999228363E+03
 2.874871072695E+00 -8.531267260845E-01 -7.945750021610E-02 3.446167024633E+01 5.510102842305E+01 -2.896384186578E-01 -3.282672994655E+00 1.707329750672E+00 5.371524247618E-01 4.739920430685E+00 6.535117860915E+00 1.359255448580E-03 7.985155023085E+00 -1.288993579194E+01 -3.853308534146E-02 -2.537004769633E+00 1.024317240828E+00 -1.581860241907E-02 1.369274041377E-01 -7.707358560708E+00 -3.040655849053E-01 -1.281813120869E-01 2.867826327956E-01 2.352109024589E-03 1.836538848518E+01 -2.227790650884E+00 5.407877906187E-01 -1.274374691673E+01 8.551380062136E+00 -1.914614257359E-02 -7.130449480744E+00 -7.879421582510E+00 -1.645651381349E-01 -2.820689403297E+01 9.000810082925E+01 -6.678655248822E-01 -7.766483610828E-01 1.609824544248E+00 1.161124409833E-01 -1.048665338027E+01 2.762553680985E+03
 -7.033318201747E-02 1.299241356001E-02 -2.047889924523E-02 -1.185735611814E-01 -3.203631031000E-01 8.183088263266E+00 3.146392537338E-01 1.865583896554E-01 2.208401726482E-01 -4.282341853608E-02 -1.706034137161E-01 1.494800569675E-02 -1.020003881294E-01 1.765179627396E-01 -6.936846859197E-02 6.381172393792E-02 -4.901570459009E-02 -8.757277257370E+00 -2.397921230233E-02 1.533584740448E-01 -1.282304712483E-01 1.204214390865E-02 2.886234173592E-02 4.231106591467E+00 -2.875315226628E-01 -3.386834915341E-01 1.848384057243E-01 2.300522733888E-01 -6.632747030747E-02 1.857917687757E-02 3.148706276313E-01 -2.623539357678E-01 9.482308902982E+00 1.197821261812E-02 -5.688895919455E-01 1.160186454408E+01 -2.652215058980E-02 1.187944650174E-02 8.592516387626E+00 -1.342688021344E+00 -1.201942659549E+01 1.844185913027E+02
 -1.808576814697E+00 1.620741274051E-01 4.520077976971E-01 -1.239509293132E+00 1.280799010226E+00 -1.937371920977E-01 3.576861806068E+00 -4.864312420769E+00 -2.770681543393E+00 -4.451073067123E+00 -3.542125153182E+00 -4.084345596117E-01 -1.292780474766E+00 -1.921178273564E-01 9.457788810296E-01 -2.540754472672E+00 -4.676367091112E-01 -4.610525073622E-01 2.520649893273E-01 6.403696327165E+00 2.214254058953E+00 2.218133855858E+00 3.688117194705E-01 3.387126251207E-01 -1.393283796672E+01 9.552115928622E+00 -1.247660742864E+00 7.445014517891E+00 -5.802034466690E+00 -1.980360816265E-01 -1.193026684009E+03 4.615716828141E+02 -1.147591510150E+00 -4.469689470764E+02 -3.368997097663E+00 1.088555290327E-02 9.892351923733E-01 1.398924606233E+00 -1.964551509144E-01 -8.169503149255E+00 6.401795792951E+00 -3.457406961844E-01 2.214669540987E+03
 5.764090528004E+00 -1.011949972882E+00 -1.425398910391E-02 -1.833702421822E+00 -3.831721053845E-01 -2.093891447081E-01 -1.499669842121E+01 -6.677932532596E+00 4.378056123137E-01 4.973090951367E+00 1.089138911586E+01 -1.904967522826E-01 9.134758759952E+00 -1.704545476765E+01 1.886803416996E-01 -6.842685804143E+00 1.884235071528E+00 -1.186127888332E-01 1.899490055752E-01 -1.190900617873E+01 1.978119724231E-01 1.527523883981E+00 5.825923348125E-01 8.825783719114E-02 2.245355670568E+01 1.189199426093E+01 9.198320997653E-01 -1.771064195012E+01 1.071668535190E+01 -1.204249043349E-01 4.697636253701E+02 -7.057532023310E+02 1.537742862606E+00 -2.078916606787E+01 -1.508080772492E+03 5.749661475635E+00 9.322098807353E-01 5.710733147373E+00 -4.633631709620E-02 2.414466582817E+01 -7.213091458953E+00 1.220134063322E-01 -2.062991213603E+02 2.464251673487E+03
 -2.031679890947E-01 -7.505413089825E-02 1.130417816336E-01 5.096321558163E-02 7.323783306590E-02 1.382675785542E-02 6.047393781265E-01 2.441258779379E-02 -3.687869856421E-01 -2.858190439834E-01 -3.544347235653E-01 3.587706954064E-02 -2.190931591083E-01 -1.856929899698E-01 8.511396288819E-02 -2.409341842044E-01 -1.022387676881E-01 1.213033996309E+00 1.241104415410E-02 6.201919335850E-01 3.272897190893E-01 1.587396637305E-01 -2.517040509715E-03 -7.417450355546E-01 -1.049603454094E+00 2.716202355461E-01 -6.119002800517E-01 7.092192518448E-01 -4.181124150229E-01 5.666686979664E-02 -1.231767445914E+00 2.248734892373E+00 -6.799421248011E+01 -8.334367065003E-01 5.620079844260E+00 -6.533645659380E+01 1.201084073771E-02 2.692026396360E-01 3.452598269787E+00 -4.093573071266E-01 6.072613391246E-01 -6.081792862046E+00 2.372882351260E+00 -8.122147924349E+00 1.933816369877E+02
 -3.110544653133E+00 2.256469967127E-01 1.294570016792E-01 2.375114603545E-01 -7.985607309954E-02 8.777365050638E-02 8.116932486321E+00 4.148507343005E+00 -8.479226531045E-01 -1.864060170134E+00 -4.374128106659E+00 5.166322406372E-03 -2.422062838776E+00 4.838422859877E+00 1.735992145855E-01 -1.652350960540E+01 3.506494233274E+01 -1.908827669626E-01 -5.551316125320E-02 5.015229823340E+00 4.162233232207E-01 -6.598842505637E-01 -3.778800719209E-01 4.875375935615E-02 -9.547725021853E+00 -6.424312630245E+00 -6.827039826783E-01 6.425029853296E+00 -3.660470939548E+00 8.339684489556E-03 -1.212837853282E+03 -4.242764133800E+02 2.135388224150E+00 -7.304900632524E+00 -7.575072526918E+00 3.112747186932E-01 -1.181000621013E+03 4.234555482598E+02 -2.197934839642E+00 -4.744117373513E+02 -1.183442987060E+01 -4.121070480890E-02 -1.901712269352E+01 -2.786005751307E+01 1.045501499289E-01 2.752761877951E+03
 -3.782216247816E+00 1.412356186335E+00 5.254806086324E-02 -6.526115688123E-01 2.424694059565E+00 -1.010979401375E-01 2.132542943968E+00 -5.965954153548E+00 -5.535813754790E-02 -8.605019126074E+00 -1.024658250773E+01 -1.166793389036E-02 -1.432098945527E+01 2.165821818816E+01 -1.570737812987E-01 -3.111238795917E+01 5.589651681728E+01 -2.286115059166E-01 -2.383408602564E-01 1.266300978406E+01 1.031653762899E-01 8.734695347910E-01 -3.527834125877E-01 -9.736868435855E-03 -2.958746491096E+01 8.723577294359E+00 -1.765145297933E-01 2.193910292519E+01 -1.528119777087E+01 6.691150178257E-02 -4.226449282390E+02 -6.894707767766E+02 2.957083902096E+00 -2.157806971339E+01 -2.623611274080E+01 5.017874773807E-01 4.287154099164E+02 -7.177373509510E+02 2.989484319195E+00 -3.276323647108E+01 -1.485893442288E+03 6.360148525486E+00 2.742133982787E+01 6.820094433704E+01 -1.223727519522E+00 5.181464215635E-01 2.785919935809E+03
 -2.089522088138E-02 4.825605763135E-02 4.539451432968E+00 1.527429684090E-02 -3.385326033019E-03 -8.878047509006E+00 5.916588844830E-02 1.362875456011E-01 -6.990308235388E-03 6.040151483585E-02 4.652303452624E-02 -1.306403573294E-02 6.338638128614E-02 2.619039508748E-03 5.840651123455E-03 2.891322550618E-01 -2.226818367980E-01 8.636046294229E+00 9.938315352845E-03 -9.280099386806E-02 -2.460188975271E-02 -6.034429429032E-02 -2.429910577283E-02 1.799761204697E-01 1.758741307869E-01 -2.535715515832E-01 6.190392402839E-02 -1.184768597186E-01 9.193475151382E-02 -1.585626830743E-02 1.938074036339E+00 2.160189181556E+00 -7.804335501057E+01 3.127529704362E-02 -7.354697651232E-02 -8.760258502902E+00 -2.203672153190E+00 2.969949566861E+00 -8.028672851537E+01 3.811440364184E-01 6.434415288818E+00 -8.250342255471E+01 -3.023216377943E-03 8.670880872275E-02 -7.462788530413E+00 1.337453977498E-01 -1.181512551440E+01 1.910559150026E+02
 1.320060158624E+01 -4.125606728332E+00 -2.834013550121E-01 -1.402557767689E+00 -4.152898907998E+00 -1.236121348365E-01 -1.795365819212E+01 6.585697140121E+00 1.890102882158E+00 2.143689344374E+01 2.997047941590E+01 1.962726941793E-02 3.528632488230E+01 -5.668430802293E+01 -7.467528025096E-02 -7.140814664227E+00 7.733790138150E+00 1.525098505487E-01 8.649074126829E-01 -3.570825047657E+01 -1.037049975744E+00 -8.115605739788E-01 7.492782777464E-01 -8.590304787976E-02 8.299176689547E+01 -8.978117612591E+00 1.797275465298E+00 -5.868712818695E+01 3.943697835147E+01 -1.418641411291E-01 -2.117649529705E+01 -3.446709786565E+01 -1.193740142757E-01 -1.449548895462E+03 -4.675256461867E+02 2.694571899111E+00 -8.857282181052E-01 8.820676693013E+00 5.737013893033E-02 -1.192282839782E+03 4.127684237456E+02 -1.037368237373E+00 5.450536791698E+01 -3.631794524729E+01 5.609370306497E-01 5.311210023722E+01 3.447387295643E+01 -2.603355762535E-01 2.968299626140E+03
 9.913042015612E-01 -7.187686992883E-01 1.184595729006E-03 4.723595309428E-01 -1.028869462872E+00 4.089950446249E-02 1.464802599335E+00 5.507771057491E+00 -2.467923628108E-02 4.616591366167E+00 4.710389147777E+00 7.223925919683E-03 7.370345501901E+00 -1.104591840786E+01 7.142935044792E-02 4.417910876784E-01 1.613842103287E+00 4.981694882319E-03 5.051547122673E-02 -6.176140516412E+00 -3.268195020730E-02 -9.176585525741E-01 -7.233667720866E-02 1.107151961098E-02 1.395814752235E+01 -8.177011827531E+00 7.889370266670E-02 -1.099765801432E+01 8.145962964707E+00 -2.101378086206E-02 2.248806069906E+00 -1.321300893124E+01 -1.089149681574E-01 -5.352232933711E+02 -8.504225432661E+02 3.884263914286E+00 -1.116294638315E+00 3.697430913675E-01 4.375650866686E-02 4.321897168261E+02 -7.430870992210E+02 2.948335154369E+00 -8.136954082814E+01 8.833018724985E-01 4.732740639935E-01 7.275199315983E+01 6.727746030902E+00 -4.316843728002E-02 8.655423399476E+01 2.549188320544E+03
 2.550934151166E-01 -6.556736529441E-03 -7.331841262230E-03 -1.036366364409E-01 2.584534586603E-02 4.625542455643E+00 -7.259478182430E-01 -5.622853274911E-01 -6.460330600596E-02 -6.639080414935E-03 1.963613884249E-01 -1.287539055192E-02 -2.282150524020E-03 -1.227194621642E-02 2.720089309575E-02 -1.988383367675E-01 -1.362665881059E-02 -2.245759896961E-01 2.100087054024E-02 -1.933437900890E-01 2.418984294276E-02 8.773299118959E-02 4.091824959141E-02 1.351085300866E-01 4.422875740358E-01 8.293929991509E-01 -2.007632761786E-02 -1.901193641829E-01 2.966754370054E-02 -2.517056976559E-02 -8.480378060896E-01 5.938297084942E-01 -1.027096115831E+01 3.792497309317E+00 4.166668378810E+00 -6.414167381195E+01 1.148022593233E-01 1.881614222104E-01 4.774996555982E+00 -9.774818152839E-01 2.778099939640E+00 -7.707017980930E+01 -2.739670574537E-01 -8.277227722316E-01 -9.550723055542E-01 -1.133715206490E-01 -3.232058072136E-03 1.319138640771E+01 -3.044987322760E+00 -1.128332052249E+01 1.492504427135E+02
 3.820231825629E+00 -1.635972529617E+00 -5.311832001747E-02 -1.227542768740E+03 4.474487452730E+02 -2.223965024176E+00 -2.610836626112E+00 5.918122056296E+00 2.237800795136E-01 8.522592328127E+00 1.076935104283E+01 8.108067625462E-03 1.422061605787E+01 -2.183755875214E+01 1.290918169432E-01 3.843708727158E+01 2.420399159282E+00 1.842070941858E-02 3.505134362312E-01 -1.296500563342E+01 -1.830167229405E-01 -2.100302293556E+01 3.634030638558E+01 -2.114874523197E-01 2.990170880543E+01 -8.400295029169E+00 3.536142264447E-01 -2.212698242481E+01 1.532684971478E+01 -5.269933246597E-02 -4.534568042500E+00 -1.754455443707E+01 1.521374984606E-03 2.348812067141E+01 2.664023633458E+01 -2.993642251487E-01 -8.636634709695E-01 2.488329390721E+00 7.425201553026E-02 -1.125380388648E+03 -4.033733085003E+02 2.282959281774E+00 6.873070230162E+00 -9.893886342347E+00 6.255340776638E-01 4.111036956139E+01 1.286614374356E+01 -1.721947350637E-01 -5.344856982792E+01 -3.887618432049E+01 1.264367132065E-03 2.731356065937E+03
 6.475977419618E+00 -1.837952926312E+00 -1.208756790225E-01 4.562325456696E+02 -7.508903997405E+02 3.587822740271E+00 -1.192633368945E+01 -5.168278468851E-01 1.069494274827E+00 8.416176955650E+00 1.282498758125E+01 4.259838676055E-02 1.333596344695E+01 -2.195498803546E+01 -1.110409286329E-01 6.348368784306E+01 2.983829591887E+00 1.018392738464E-01 4.412464352309E-01 -1.521558393745E+01 -5.252718870899E-01 -3.278128210523E+01 5.996401943377E+01 -2.820116238841E-01 3.465530947782E+01 8.589142546552E-01 9.481887790561E-01 -2.422836258497E+01 1.617615150204E+01 -5.994383285131E-02 -1.470467405815E+01 -9.539718681021E+00 -2.721234807934E-01 2.721546633357E+01 2.864604275917E+01 -5.754302407134E-01 8.338874713611E-01 4.289125988982E+00 -4.258134255005E-02 -3.645198611111E+02 -6.770135784009E+02 3.500764134400E+00 4.155129440584E+00 -1.588839948812E+01 5.808636442002E-01 -5.903078736411E+01 1.409773344836E+01 -4.504067085294E-04 -1.019724414138E+01 5.159303563532E+01 -6.220881831053E-01 -1.858670289808E+01 2.784830754018E+03
 7.802135534519E-03 3.371950127688E-02 4.649897767209E+00 -2.452075318547E+00 3.789655341416E+00 -8.298473255405E+01 -9.726431551539E-02 -1.320539400073E-01 -1.758714500215E-01 -2.655912293831E-02 4.899066026006E-02 4.667671460657E+00 -2.308034633769E-02 -5.947866178240E-02 4.908746705880E-02 -3.417727678090E-01 -9.746406714195E-04 9.085171851946E+00 5.317383252260E-03 1.670996529187E-02 1.124707579538E-01 2.061666821866E-01 -2.749420943110E-01 9.514241251694E+00 -6.397165676344E-02 2.784503519204E-01 -1.686834815238E-01 3.891849709060E-02 -4.553262684932E-02 -4.914006272328E-03 2.949006829387E-02 3.354659088834E-01 4.268492079918E+00 -1.616460529845E-02 1.096113286482E-01 5.120367030591E+00 -6.895961712679E-02 -4.376348054550E-02 -8.965590622315E+00 2.337564988620E+00 3.127683474271E+00 -7.975842779291E+01 5.859603385556E-01 1.277105808347E-01 2.919528451444E+00 3.206196635173E-01 1.048426933364E-01 7.423110378069E+00 -7.573193225233E-02 -1.589282170103E-01 9.034835525837E+00 -2.499447934156E-01 -1.616909478152E+01 1.863591101694E+02