#BIOSYM hessian 1
@Type: Hessian Update
@Units
 distance: 	A
 energy: 	Kcal/Mol
#header
@natom 67

#label
C1      C2      C3      C4      C5      C6      C7      C8      C9      C10     C11     C12     C13     C14     C15     C16     C17     C18     C19     C20     C21     C22     C23     H24     C25     C26     C27     C28     C29     C30     C31     C32     C33     C34     C35     C36     C37     C38     C39     C40     C41     C42     C43     C44     C45     C46     C47     C48     C49     H50     O51     H52     H53     H54     H55     H56     H57     H58     H59     H60     H61     H62     H63     H64     H65     H66     H67

#element
C  C  C  C  C  C  C  C  C  C  C  C  C  C  C  C  C  C  C  C  C  C  C  H  C  C  C  C  C  C  C  C  C  C  C  C  C  C  C  C  C  C  C  C  C  C  C  C  C  H  O  H  H  H  H  H  H  H  H  H  H  H  H  H  H  H  H 

#matrix
201
 2.755622607686E+03
 -2.254751061975E+01 2.802602798051E+03
 0.000000000000E+00 0.000000000000E+00 0.000000000000E+00
 3.955200561714E+01 6.668945979803E+01 0.000000000000E+00 2.788010561210E+03
 -8.320563571648E-01 -9.466082550678E-01 0.000000000000E+00 -2.252682427544E+01 2.770487864260E+03
 0.000000000000E+00 0.000000000000E+00 0.000000000000E+00 0.000000000000E+00 0.000000000000E+00 0.000000000000E+00
 -2.136021299126E+01 3.507037610274E+01 0.000000000000E+00 8.194122896782E-01 -1.426945728118E-01 0.000000000000E+00 2.810898235394E+03
 -3.299369320717E+01 6.145349005891E+01 0.000000000000E+00 -4.402454487774E-02 8.098365192526E-01 0.000000000000E+00 -3.503499194761E+01 2.816867829945E+03
 0.000000000000E+00 0.000000000000E+00 0.000000000000E+00 0.000000000000E+00 0.000000000000E+00 0.000000000000E+00 0.000000000000E+00 0.000000000000E+00 0.000000000000E+00
 3.821047356396E+01 -6.831234660820E+01 0.000000000000E+00 -1.893365023840E+01 3.479147928618E+01 0.000000000000E+00 3.942208548434E+01 7.321923621628E+01 0.000000000000E+00 2.791668567918E+03
 -4.842602211552E+00 -1.942186780409E+00 0.000000000000E+00 -3.230238326263E+01 5.810733067472E+01 0.000000000000E+00 -3.975226235368E+00 2.524777197058E+00 0.000000000000E+00 -2.381799296766E+01 2.827881426021E+03
 0.000000000000E+00 0.000000000000E+00 0.000000000000E+00 0.000000000000E+00 0.000000000000E+00 0.000000000000E+00 0.000000000000E+00 0.000000000000E+00 0.000000000000E+00 0.000000000000E+00 0.000000000000E+00 0.000000000000E+00
 -4.931897516989E+00 -2.476541558024E+00 0.000000000000E+00 2.057146442443E+00 -1.372874028483E+00 0.000000000000E+00 3.771316016596E+01 -7.029674742387E+01 0.000000000000E+00 -2.811074595937E+01 2.553032113868E+01 0.000000000000E+00 2.634436211098E+03
 9.120371613386E+00 4.765732947812E+00 0.000000000000E+00 -3.492964381335E+00 2.630073419565E+00 0.000000000000E+00 9.196517659147E+00 -6.773881267676E+00 0.000000000000E+00 -2.564200040323E+01 8.514064606637E+01 0.000000000000E+00 -1.982098553253E+02 2.865646422122E+03
 0.000000000000E+00 0.000000000000E+00 0.000000000000E+00 0.000000000000E+00 0.000000000000E+00 0.000000000000E+00 0.000000000000E+00 0.000000000000E+00 0.000000000000E+00 0.000000000000E+00 0.000000000000E+00 0.000000000000E+00 0.000000000000E+00 0.000000000000E+00 0.000000000000E+00
 -1.218000652138E+03 4.463894934353E+02 0.000000000000E+00 -4.632174828780E+02 -3.221098512194E+00 0.000000000000E+00 2.260052508809E+00 -1.836378813351E+00 0.000000000000E+00 2.823140762863E+00 6.183309034209E+00 0.000000000000E+00 7.481783902203E+00 -1.320121460907E+01 0.000000000000E+00 2.811145769841E+03
 4.414695893662E+02 -7.340024629066E+02 0.000000000000E+00 -2.010637418253E+00 -1.426637415400E+03 0.000000000000E+00 -3.634177933127E-01 -5.353170918388E-01 0.000000000000E+00 -2.501424497447E-01 4.037179102870E-01 0.000000000000E+00 7.588675736959E-02 -4.399094319256E-01 0.000000000000E+00 -2.068736304686E+00 2.770838305104E+03
 0.000000000000E+00 0.000000000000E+00 0.000000000000E+00 0.000000000000E+00 0.000000000000E+00 0.000000000000E+00 0.000000000000E+00 0.000000000000E+00 0.000000000000E+00 0.000000000000E+00 0.000000000000E+00 0.000000000000E+00 0.000000000000E+00 0.000000000000E+00 0.000000000000E+00 0.000000000000E+00 0.000000000000E+00 0.000000000000E+00
 -1.183732359646E+03 -4.213455325248E+02 0.000000000000E+00 -8.869814093474E-01 1.895949660928E-01 0.000000000000E+00 -1.273595353211E+03 4.488100089644E+02 0.000000000000E+00 -4.827452729908E+02 -2.334199443771E+00 0.000000000000E+00 6.780792288718E+00 -1.203652591880E+01 0.000000000000E+00 -2.301769530865E+01 -3.353046900265E+01 0.000000000000E+00 2.823696941314E+03
 -4.164655255704E+02 -7.121943125143E+02 0.000000000000E+00 -1.834218525731E+00 1.275716729855E+00 0.000000000000E+00 4.551278217472E+02 -7.519025910295E+02 0.000000000000E+00 -5.370474942151E+00 -1.495465277446E+03 0.000000000000E+00 1.296472934796E+01 -2.273093083744E+01 0.000000000000E+00 2.779658687249E+01 5.694229931480E+01 0.000000000000E+00 -2.879796095298E+01 2.842158725951E+03
 0.000000000000E+00 0.000000000000E+00 0.000000000000E+00 0.000000000000E+00 0.000000000000E+00 0.000000000000E+00 0.000000000000E+00 0.000000000000E+00 0.000000000000E+00 0.000000000000E+00 0.000000000000E+00 0.000000000000E+00 0.000000000000E+00 0.000000000000E+00 0.000000000000E+00 0.000000000000E+00 0.000000000000E+00 0.000000000000E+00 0.000000000000E+00 0.000000000000E+00 0.000000000000E+00
 -1.201457203062E-01 -7.783440964629E-01 0.000000000000E+00 -1.218064007829E+03 -4.253713891652E+02 0.000000000000E+00 -4.723521472673E-02 2.956206838858E-01 0.000000000000E+00 -1.233770940320E+03 4.411259694275E+02 0.000000000000E+00 -7.072774034747E-01 1.380780433035E+00 0.000000000000E+00 3.802359226073E+01 6.656235897760E-02 0.000000000000E+00 4.124864688516E+01 7.283617925108E-01 0.000000000000E+00 2.813825407344E+03
 1.457668567165E+00 8.995320190564E-01 0.000000000000E+00 -4.277716237909E+02 -7.139256697778E+02 0.000000000000E+00 6.445510449945E-01 -1.150258020363E+00 0.000000000000E+00 4.413825216280E+02 -7.358301129713E+02 0.000000000000E+00 2.984708632372E+00 -5.444291651566E+00 0.000000000000E+00 -6.803986895679E+01 -3.592700948799E-02 0.000000000000E+00 6.918132977562E+01 -2.822747332196E+00 0.000000000000E+00 -2.740028567984E-01 2.816519732864E+03
 0.000000000000E+00 0.000000000000E+00 0.000000000000E+00 0.000000000000E+00 0.000000000000E+00 0.000000000000E+00 0.000000000000E+00 0.000000000000E+00 0.000000000000E+00 0.000000000000E+00 0.000000000000E+00 0.000000000000E+00 0.000000000000E+00 0.000000000000E+00 0.000000000000E+00 0.000000000000E+00 0.000000000000E+00 0.000000000000E+00 0.000000000000E+00 0.000000000000E+00 0.000000000000E+00 0.000000000000E+00 0.000000000000E+00 0.000000000000E+00
 3.747174001174E+00 2.100947534127E+00 0.000000000000E+00 -1.542870104650E+00 1.025084977724E+00 0.000000000000E+00 -1.180749802806E+03 -4.116895734904E+02 0.000000000000E+00 4.571268618015E+00 9.227620387833E+00 0.000000000000E+00 -5.151503386118E+02 -7.884231872878E+00 0.000000000000E+00 -5.496379994404E+00 -2.037904948384E-01 0.000000000000E+00 -2.499084605355E+01 -4.448255676446E+01 0.000000000000E+00 6.318931254842E-01 -2.148325479288E+00 0.000000000000E+00 2.777970901293E+03
 -1.000026449431E+01 -5.043817855589E+00 0.000000000000E+00 3.684564853592E+00 -2.902563030533E+00 0.000000000000E+00 -4.294344223519E+02 -7.046017472885E+02 0.000000000000E+00 -1.145519233866E+01 -2.361598979846E+01 0.000000000000E+00 -1.660529348492E+01 -1.596237173763E+03 0.000000000000E+00 1.422891864057E+01 5.631660006930E-01 0.000000000000E+00 4.732322587761E+01 8.390699639072E+01 0.000000000000E+00 -1.537450961957E+00 5.924108757449E+00 0.000000000000E+00 -2.519509882428E+00 2.908383394902E+03
 0.000000000000E+00 0.000000000000E+00 0.000000000000E+00 0.000000000000E+00 0.000000000000E+00 0.000000000000E+00 0.000000000000E+00 0.000000000000E+00 0.000000000000E+00 0.000000000000E+00 0.000000000000E+00 0.000000000000E+00 0.000000000000E+00 0.000000000000E+00 0.000000000000E+00 0.000000000000E+00 0.000000000000E+00 0.000000000000E+00 0.000000000000E+00 0.000000000000E+00 0.000000000000E+00 0.000000000000E+00 0.000000000000E+00 0.000000000000E+00 0.000000000000E+00 0.000000000000E+00 0.000000000000E+00
 6.079343630863E+00 3.589952578100E+00 0.000000000000E+00 -2.347997734543E+00 1.830294907985E+00 0.000000000000E+00 6.026722913380E+00 -3.716835964393E+00 0.000000000000E+00 -1.186415946717E+03 -4.066557442229E+02 0.000000000000E+00 -1.326233275372E+03 4.614059470048E+02 0.000000000000E+00 -9.076886043286E+00 -3.101384577834E-01 0.000000000000E+00 3.131716848603E+01 -1.616391634022E+01 0.000000000000E+00 -1.876793446292E+01 -3.722537543934E+01 0.000000000000E+00 3.550342185723E+01 3.613561980748E+01 0.000000000000E+00 2.869215244097E+03
 -3.741924944363E+00 -2.144402523868E+00 0.000000000000E+00 1.410560843698E+00 -1.034577320858E+00 0.000000000000E+00 -3.616981967081E+00 2.422116824696E+00 0.000000000000E+00 -4.183663489323E+02 -7.237318987621E+02 0.000000000000E+00 4.805618800304E+02 -8.015627044992E+02 0.000000000000E+00 5.447610241425E+00 1.518600444003E-01 0.000000000000E+00 -6.335302920275E+01 9.838121555915E+00 0.000000000000E+00 3.397776420129E+01 6.064471278534E+01 0.000000000000E+00 9.078289824715E+01 -2.055671205295E+01 0.000000000000E+00 -7.828653218575E+01 2.851815460695E+03
 0.000000000000E+00 0.000000000000E+00 0.000000000000E+00 0.000000000000E+00 0.000000000000E+00 0.000000000000E+00 0.000000000000E+00 0.000000000000E+00 0.000000000000E+00 0.000000000000E+00 0.000000000000E+00 0.000000000000E+00 0.000000000000E+00 0.000000000000E+00 0.000000000000E+00 0.000000000000E+00 0.000000000000E+00 0.000000000000E+00 0.000000000000E+00 0.000000000000E+00 0.000000000000E+00 0.000000000000E+00 0.000000000000E+00 0.000000000000E+00 0.000000000000E+00 0.000000000000E+00 0.000000000000E+00 0.000000000000E+00 0.000000000000E+00 0.000000000000E+00
 3.067598084848E-01 -1.692477389870E-02 0.000000000000E+00 -2.520536525758E-01 1.000343261261E-02 0.000000000000E+00 5.728731828065E-01 -2.236141400502E-02 0.000000000000E+00 6.901788085905E-01 1.159394823120E+00 0.000000000000E+00 1.603500520717E+00 -2.619732237808E+00 0.000000000000E+00 -7.143843344664E-01 8.202808262724E-02 0.000000000000E+00 -6.636337448799E-01 -1.274885566332E+00 0.000000000000E+00 2.885111749068E-02 -1.735446475412E-01 0.000000000000E+00 -1.230179598531E+00 2.762364358974E+00 0.000000000000E+00 -1.868867574124E+00 1.072166135324E+00 0.000000000000E+00 2.818153870728E+03
 2.088042177852E-01 4.282651428665E-01 0.000000000000E+00 1.916813605179E-01 1.376298250190E-01 0.000000000000E+00 -3.398180472739E-01 -4.056907341591E-01 0.000000000000E+00 -3.202768115708E-01 -2.221002499919E-01 0.000000000000E+00 -4.765654350409E-01 6.217958464712E-01 0.000000000000E+00 1.277742905760E-01 -3.305816792527E-01 0.000000000000E+00 2.679650841827E-01 2.357533663316E-01 0.000000000000E+00 5.408639566267E-02 -1.213728861020E-01 0.000000000000E+00 3.993513135500E-01 -6.022077358208E-01 0.000000000000E+00 4.592528587768E-01 -2.114718148492E-01 0.000000000000E+00 5.427030585349E-01 2.805288403869E+03
 0.000000000000E+00 0.000000000000E+00 0.000000000000E+00 0.000000000000E+00 0.000000000000E+00 0.000000000000E+00 0.000000000000E+00 0.000000000000E+00 0.000000000000E+00 0.000000000000E+00 0.000000000000E+00 0.000000000000E+00 0.000000000000E+00 0.000000000000E+00 0.000000000000E+00 0.000000000000E+00 0.000000000000E+00 0.000000000000E+00 0.000000000000E+00 0.000000000000E+00 0.000000000000E+00 0.000000000000E+00 0.000000000000E+00 0.000000000000E+00 0.000000000000E+00 0.000000000000E+00 0.000000000000E+00 0.000000000000E+00 0.000000000000E+00 0.000000000000E+00 0.000000000000E+00 0.000000000000E+00 0.000000000000E+00
 -8.280865364935E-01 -3.964257659688E-01 0.000000000000E+00 2.887740524297E-01 -2.748950377269E-01 0.000000000000E+00 -7.487044449721E-01 5.850541201403E-01 0.000000000000E+00 -9.138134437433E-01 -1.939483710328E+00 0.000000000000E+00 -2.404683218815E+00 4.249476686623E+00 0.000000000000E+00 1.148873009165E+00 6.351011462510E-02 0.000000000000E+00 1.062486623599E+00 1.954400998053E+00 0.000000000000E+00 -1.082853330002E-01 5.082494460950E-01 0.000000000000E+00 1.731495906199E+00 -4.599882780599E+00 0.000000000000E+00 2.887545808988E+00 -1.758193776342E+00 0.000000000000E+00 4.196252245370E+01 7.165837080921E+01 0.000000000000E+00 2.789315286795E+03
 -1.002648161936E+00 -5.881247247566E-01 0.000000000000E+00 3.859627705219E-01 -3.034666871007E-01 0.000000000000E+00 -9.848004084958E-01 6.250347849477E-01 0.000000000000E+00 -1.203135096239E+00 -2.500328826435E+00 0.000000000000E+00 -3.125419263891E+00 5.456356537949E+00 0.000000000000E+00 1.512630374632E+00 5.221421864433E-02 0.000000000000E+00 1.371770849384E+00 2.602636793545E+00 0.000000000000E+00 -1.496277027265E-01 6.164775386380E-01 0.000000000000E+00 2.310282102299E+00 -5.885003043522E+00 0.000000000000E+00 3.755432372562E+00 -2.240873518041E+00 0.000000000000E+00 -7.086378507699E-01 -1.903253497496E+00 0.000000000000E+00 2.767505363724E+02 2.861455632819E+03
 0.000000000000E+00 0.000000000000E+00 0.000000000000E+00 0.000000000000E+00 0.000000000000E+00 0.000000000000E+00 0.000000000000E+00 0.000000000000E+00 0.000000000000E+00 0.000000000000E+00 0.000000000000E+00 0.000000000000E+00 0.000000000000E+00 0.000000000000E+00 0.000000000000E+00 0.000000000000E+00 0.000000000000E+00 0.000000000000E+00 0.000000000000E+00 0.000000000000E+00 0.000000000000E+00 0.000000000000E+00 0.000000000000E+00 0.000000000000E+00 0.000000000000E+00 0.000000000000E+00 0.000000000000E+00 0.000000000000E+00 0.000000000000E+00 0.000000000000E+00 0.000000000000E+00 0.000000000000E+00 0.000000000000E+00 0.000000000000E+00 0.000000000000E+00 0.000000000000E+00
 -2.090672087139E+01 -3.501256340157E+01 0.000000000000E+00 3.852864317165E+01 -4.013501719129E-01 0.000000000000E+00 -5.160865430261E-01 6.454580627777E-01 0.000000000000E+00 -6.513350515396E-01 -1.527574819846E+00 0.000000000000E+00 -1.851998633724E+00 3.318640439904E+00 0.000000000000E+00 -1.249393468262E+03 -4.357375134481E+02 0.000000000000E+00 8.194473944644E-01 1.670762684203E+00 0.000000000000E+00 -1.534559914623E-01 4.933914055835E-01 0.000000000000E+00 1.330048257436E+00 -3.601398183524E+00 0.000000000000E+00 2.261041322591E+00 -1.366307061319E+00 0.000000000000E+00 -1.914665078595E+01 3.397849846877E+01 0.000000000000E+00 -2.945202245185E-01 -3.828679860941E-01 0.000000000000E+00 2.774146733531E+03
 3.276436211817E+01 5.883999626844E+01 0.000000000000E+00 -6.650420441178E+01 -4.698186028283E-01 0.000000000000E+00 -3.336986945067E+00 1.408763818903E+00 0.000000000000E+00 -4.004915451605E+00 -8.019674966222E+00 0.000000000000E+00 -1.014889428391E+01 1.748275187404E+01 0.000000000000E+00 -4.356949855099E+02 -7.248449985612E+02 0.000000000000E+00 4.305122755154E+00 8.492418700318E+00 0.000000000000E+00 -4.747538154741E-01 1.743958059374E+00 0.000000000000E+00 7.708210472066E+00 -1.866900248994E+01 0.000000000000E+00 1.219346048550E+01 -7.152100695976E+00 0.000000000000E+00 -3.121745385366E+01 5.669977418024E+01 0.000000000000E+00 -1.459366165084E+00 -2.001110095198E+00 0.000000000000E+00 1.624276441032E+01 2.794472248738E+03
 0.000000000000E+00 0.000000000000E+00 0.000000000000E+00 0.000000000000E+00 0.000000000000E+00 0.000000000000E+00 0.000000000000E+00 0.000000000000E+00 0.000000000000E+00 0.000000000000E+00 0.000000000000E+00 0.000000000000E+00 0.000000000000E+00 0.000000000000E+00 0.000000000000E+00 0.000000000000E+00 0.000000000000E+00 0.000000000000E+00 0.000000000000E+00 0.000000000000E+00 0.000000000000E+00 0.000000000000E+00 0.000000000000E+00 0.000000000000E+00 0.000000000000E+00 0.000000000000E+00 0.000000000000E+00 0.000000000000E+00 0.000000000000E+00 0.000000000000E+00 0.000000000000E+00 0.000000000000E+00 0.000000000000E+00 0.000000000000E+00 0.000000000000E+00 0.000000000000E+00 0.000000000000E+00 0.000000000000E+00 0.000000000000E+00
 -1.712866734406E+00 -9.028642903758E-01 0.000000000000E+00 -1.841902914315E+01 -3.231108739887E+01 0.000000000000E+00 -1.606948093952E+00 1.165849196260E+00 0.000000000000E+00 -2.007958189823E+00 -4.176295385808E+00 0.000000000000E+00 -5.229133661827E+00 9.153646955626E+00 0.000000000000E+00 2.437438938530E+00 1.694870238446E-01 0.000000000000E+00 2.268601172957E+00 4.311012894719E+00 0.000000000000E+00 -2.258876886612E-01 1.068844567680E+00 0.000000000000E+00 3.815201165785E+00 -9.876056110473E+00 0.000000000000E+00 6.277662700731E+00 -3.794326494606E+00 0.000000000000E+00 3.974567946583E+01 -6.975118060366E+01 0.000000000000E+00 -2.378498870626E+01 3.945920987288E+01 0.000000000000E+00 3.931236101079E+01 6.354171172405E+01 0.000000000000E+00 2.777512308528E+03
 -5.721165367796E-01 -4.388193280334E-01 0.000000000000E+00 3.382535805795E+01 5.584490033449E+01 0.000000000000E+00 -3.809965831334E-01 2.077604147795E-01 0.000000000000E+00 -4.768209374964E-01 -1.217244720738E+00 0.000000000000E+00 -1.431891760378E+00 2.491685430152E+00 0.000000000000E+00 7.809450852672E-01 2.129755732840E-01 0.000000000000E+00 5.896297503176E-01 1.237491317582E+00 0.000000000000E+00 -1.309927026211E-01 3.190153458898E-01 0.000000000000E+00 1.144925107720E+00 -2.692890827672E+00 0.000000000000E+00 1.757662153465E+00 -9.819421569678E-01 0.000000000000E+00 2.422824048965E-01 -4.941026219805E-02 0.000000000000E+00 -4.238187270012E+01 7.391068628069E+01 0.000000000000E+00 -7.903014662341E-02 -9.716435840597E-01 0.000000000000E+00 -3.831016728562E+01 2.766949277042E+03
 0.000000000000E+00 0.000000000000E+00 0.000000000000E+00 0.000000000000E+00 0.000000000000E+00 0.000000000000E+00 0.000000000000E+00 0.000000000000E+00 0.000000000000E+00 0.000000000000E+00 0.000000000000E+00 0.000000000000E+00 0.000000000000E+00 0.000000000000E+00 0.000000000000E+00 0.000000000000E+00 0.000000000000E+00 0.000000000000E+00 0.000000000000E+00 0.000000000000E+00 0.000000000000E+00 0.000000000000E+00 0.000000000000E+00 0.000000000000E+00 0.000000000000E+00 0.000000000000E+00 0.000000000000E+00 0.000000000000E+00 0.000000000000E+00 0.000000000000E+00 0.000000000000E+00 0.000000000000E+00 0.000000000000E+00 0.000000000000E+00 0.000000000000E+00 0.000000000000E+00 0.000000000000E+00 0.000000000000E+00 0.000000000000E+00 0.000000000000E+00 0.000000000000E+00 0.000000000000E+00
 3.087656752303E-01 2.442068983091E-01 0.000000000000E+00 9.162442291136E-03 1.478755629687E-01 0.000000000000E+00 6.625887152066E-02 -3.750530525404E-01 0.000000000000E+00 8.322786307387E-02 3.772811421406E-01 0.000000000000E+00 3.743536466161E-01 -7.950054079607E-01 0.000000000000E+00 -2.297125857781E-01 -1.205714053322E-01 0.000000000000E+00 -1.968829515060E-01 -3.228275646257E-01 0.000000000000E+00 3.588458578119E-02 -1.889899941024E-01 0.000000000000E+00 -1.967510260177E-01 9.104577205547E-01 0.000000000000E+00 -4.864831545470E-01 3.395823956390E-01 0.000000000000E+00 -1.234770510527E+03 4.337080378092E+02 0.000000000000E+00 -5.081925724292E+02 -1.629684788145E+01 0.000000000000E+00 8.386723375204E-02 1.125221248078E-01 0.000000000000E+00 2.142750454467E-01 1.096007934098E-01 0.000000000000E+00 2.847038898390E+03
 8.582370621132E-01 4.316878328720E-01 0.000000000000E+00 -4.393108031271E-01 2.310657674214E-01 0.000000000000E+00 1.040934506186E+00 -4.646950088053E-01 0.000000000000E+00 1.250863007783E+00 2.434172280897E+00 0.000000000000E+00 3.108036843741E+00 -5.365957173819E+00 0.000000000000E+00 -1.465969595248E+00 7.635483142818E-02 0.000000000000E+00 -1.376731532878E+00 -2.552395620750E+00 0.000000000000E+00 1.293991736644E-01 -5.457425799053E-01 0.000000000000E+00 -2.319701358201E+00 5.759177875979E+00 0.000000000000E+00 -3.702616301265E+00 2.195798221509E+00 0.000000000000E+00 4.352784076596E+02 -7.323237316249E+02 0.000000000000E+00 -2.604617742184E+01 -1.543133879027E+03 0.000000000000E+00 3.671170575199E-01 2.036189958022E+00 0.000000000000E+00 1.077912200220E+00 1.946682590954E-01 0.000000000000E+00 2.883989365017E+01 2.895030705551E+03
 0.000000000000E+00 0.000000000000E+00 0.000000000000E+00 0.000000000000E+00 0.000000000000E+00 0.000000000000E+00 0.000000000000E+00 0.000000000000E+00 0.000000000000E+00 0.000000000000E+00 0.000000000000E+00 0.000000000000E+00 0.000000000000E+00 0.000000000000E+00 0.000000000000E+00 0.000000000000E+00 0.000000000000E+00 0.000000000000E+00 0.000000000000E+00 0.000000000000E+00 0.000000000000E+00 0.000000000000E+00 0.000000000000E+00 0.000000000000E+00 0.000000000000E+00 0.000000000000E+00 0.000000000000E+00 0.000000000000E+00 0.000000000000E+00 0.000000000000E+00 0.000000000000E+00 0.000000000000E+00 0.000000000000E+00 0.000000000000E+00 0.000000000000E+00 0.000000000000E+00 0.000000000000E+00 0.000000000000E+00 0.000000000000E+00 0.000000000000E+00 0.000000000000E+00 0.000000000000E+00 0.000000000000E+00 0.000000000000E+00 0.000000000000E+00
 -6.461893918953E-01 -3.126154398237E-01 0.000000000000E+00 4.100142600291E-01 -2.768023805455E-02 0.000000000000E+00 -8.241672948318E-01 1.320896251024E-01 0.000000000000E+00 -1.008489718297E+00 -1.923331504155E+00 0.000000000000E+00 -2.452636261007E+00 4.164850694515E+00 0.000000000000E+00 -1.851754371702E+01 3.453049926107E+01 0.000000000000E+00 1.014335533081E+00 2.045404301126E+00 0.000000000000E+00 -1.125558986230E-01 3.355515520623E-01 0.000000000000E+00 1.920539286340E+00 -4.392445595143E+00 0.000000000000E+00 2.960281112663E+00 -1.700740827133E+00 0.000000000000E+00 -1.227380346634E+03 -4.237991263187E+02 0.000000000000E+00 -4.666180533848E-01 -3.417402607149E-01 0.000000000000E+00 -1.169222804109E+03 4.206712464180E+02 0.000000000000E+00 -4.741473142476E+02 -6.753513988586E+00 0.000000000000E+00 -1.958489905581E+01 -3.339015340368E+01 0.000000000000E+00 2.753908546988E+03
 5.482344153355E-01 3.298795141779E-01 0.000000000000E+00 -2.876225081222E-01 6.402841059336E-02 0.000000000000E+00 8.049054649774E-01 -6.204757366076E-02 0.000000000000E+00 9.353048246617E-01 1.804629176070E+00 0.000000000000E+00 2.332330602085E+00 -3.901264181798E+00 0.000000000000E+00 -3.412651879132E+01 5.826176614943E+01 0.000000000000E+00 -1.028315146817E+00 -1.935036580250E+00 0.000000000000E+00 1.183452553563E-01 -3.205622910744E-01 0.000000000000E+00 -1.832997974092E+00 4.152806979972E+00 0.000000000000E+00 -2.769928783202E+00 1.539993768591E+00 0.000000000000E+00 -4.273250200212E+02 -7.110464116256E+02 0.000000000000E+00 5.315497892764E-01 5.764416839719E-01 0.000000000000E+00 4.244966537657E+02 -7.126392348656E+02 0.000000000000E+00 3.723500236010E+00 -1.499419105036E+03 0.000000000000E+00 3.452881392357E+01 5.946075563557E+01 0.000000000000E+00 1.252756881376E+00 2.806429344133E+03
 0.000000000000E+00 0.000000000000E+00 0.000000000000E+00 0.000000000000E+00 0.000000000000E+00 0.000000000000E+00 0.000000000000E+00 0.000000000000E+00 0.000000000000E+00 0.000000000000E+00 0.000000000000E+00 0.000000000000E+00 0.000000000000E+00 0.000000000000E+00 0.000000000000E+00 0.000000000000E+00 0.000000000000E+00 0.000000000000E+00 0.000000000000E+00 0.000000000000E+00 0.000000000000E+00 0.000000000000E+00 0.000000000000E+00 0.000000000000E+00 0.000000000000E+00 0.000000000000E+00 0.000000000000E+00 0.000000000000E+00 0.000000000000E+00 0.000000000000E+00 0.000000000000E+00 0.000000000000E+00 0.000000000000E+00 0.000000000000E+00 0.000000000000E+00 0.000000000000E+00 0.000000000000E+00 0.000000000000E+00 0.000000000000E+00 0.000000000000E+00 0.000000000000E+00 0.000000000000E+00 0.000000000000E+00 0.000000000000E+00 0.000000000000E+00 0.000000000000E+00 0.000000000000E+00 0.000000000000E+00
 1.479991885002E+00 7.530190409589E-01 0.000000000000E+00 -5.608055826195E-01 4.520285707614E-01 0.000000000000E+00 1.445011596475E+00 -1.058688419281E+00 0.000000000000E+00 1.743788578717E+00 3.597792583420E+00 0.000000000000E+00 4.500084830735E+00 -7.922509064287E+00 0.000000000000E+00 -2.146247152716E+00 -9.252898620056E-02 0.000000000000E+00 -1.983812953316E+00 -3.717436419366E+00 0.000000000000E+00 2.122381955989E-01 -9.240476825149E-01 0.000000000000E+00 -3.277408818518E+00 8.571371258237E+00 0.000000000000E+00 -5.410431010430E+00 3.290697946152E+00 0.000000000000E+00 -5.013883158770E-01 1.174339966946E-01 0.000000000000E+00 -1.511235253890E+03 -5.271792335702E+02 0.000000000000E+00 5.311542197777E-01 2.816742371975E+00 0.000000000000E+00 -1.274839676747E+03 4.358440069245E+02 0.000000000000E+00 4.869211737551E+01 -2.005242527469E+00 0.000000000000E+00 4.027810555167E+01 -6.691973941572E-01 0.000000000000E+00 3.077683575395E+03
 -1.388228618979E-03 7.915717744482E-02 0.000000000000E+00 4.852547962828E-02 3.663604041255E-02 0.000000000000E+00 -1.138902266502E-01 -5.492667880108E-02 0.000000000000E+00 -1.284509029485E-01 -1.327112833637E-01 0.000000000000E+00 -2.094159856657E-01 3.451874621463E-01 0.000000000000E+00 1.009231410893E-01 -8.577656769914E-02 0.000000000000E+00 1.114236439384E-01 1.321160651529E-01 0.000000000000E+00 1.108542609546E-02 -1.053111274679E-02 0.000000000000E+00 1.460129838553E-01 -3.293785011262E-01 0.000000000000E+00 2.347410452868E-01 -1.388526154028E-01 0.000000000000E+00 -2.464262915792E-02 1.059334509690E-01 0.000000000000E+00 -5.377082845276E+02 -8.661697347092E+02 0.000000000000E+00 -2.508443904835E-02 -1.625351224939E-01 0.000000000000E+00 4.207000982076E+02 -7.279065785514E+02 0.000000000000E+00 -8.623715658494E+01 2.117470604776E+00 0.000000000000E+00 7.204862208812E+01 -1.369544522926E-01 0.000000000000E+00 9.083603527583E+01 2.541738940616E+03
 0.000000000000E+00 0.000000000000E+00 0.000000000000E+00 0.000000000000E+00 0.000000000000E+00 0.000000000000E+00 0.000000000000E+00 0.000000000000E+00 0.000000000000E+00 0.000000000000E+00 0.000000000000E+00 0.000000000000E+00 0.000000000000E+00 0.000000000000E+00 0.000000000000E+00 0.000000000000E+00 0.000000000000E+00 0.000000000000E+00 0.000000000000E+00 0.000000000000E+00 0.000000000000E+00 0.000000000000E+00 0.000000000000E+00 0.000000000000E+00 0.000000000000E+00 0.000000000000E+00 0.000000000000E+00 0.000000000000E+00 0.000000000000E+00 0.000000000000E+00 0.000000000000E+00 0.000000000000E+00 0.000000000000E+00 0.000000000000E+00 0.000000000000E+00 0.000000000000E+00 0.000000000000E+00 0.000000000000E+00 0.000000000000E+00 0.000000000000E+00 0.000000000000E+00 0.000000000000E+00 0.000000000000E+00 0.000000000000E+00 0.000000000000E+00 0.000000000000E+00 0.000000000000E+00 0.000000000000E+00 0.000000000000E+00 0.000000000000E+00 0.000000000000E+00
 7.437092864390E-01 6.461670225753E-01 0.000000000000E+00 -1.228544611023E+03 4.465480885158E+02 0.000000000000E+00 4.123221291708E-01 -6.537943781354E-01 0.000000000000E+00 6.236781535034E-01 1.521866748588E+00 0.000000000000E+00 1.772765943944E+00 -3.251392723700E+00 0.000000000000E+00 3.938675685464E+01 -2.815590036560E-01 0.000000000000E+00 -6.826469087736E-01 -1.589358966168E+00 0.000000000000E+00 -2.008896493817E+01 3.521129550251E+01 0.000000000000E+00 -1.286926005763E+00 3.532631947169E+00 0.000000000000E+00 -2.185268839050E+00 1.402828198846E+00 0.000000000000E+00 -9.598676718557E-02 -7.400730603462E-02 0.000000000000E+00 3.014677003588E-01 3.689620627611E-01 0.000000000000E+00 2.568705199901E-01 9.956191524400E-01 0.000000000000E+00 -1.145581808839E+03 -3.925750508258E+02 0.000000000000E+00 -1.031945818384E-01 -3.218891626627E-01 0.000000000000E+00 3.720559509324E+01 -1.290399094590E-01 0.000000000000E+00 -1.845557382215E+01 -3.272030756247E+01 0.000000000000E+00 2.740444735734E+03
 2.617254480350E+00 1.321527054413E+00 0.000000000000E+00 4.550546653579E+02 -7.424979990513E+02 0.000000000000E+00 2.574926101915E+00 -1.568309903079E+00 0.000000000000E+00 3.151525725493E+00 6.506955407913E+00 0.000000000000E+00 8.115831807788E+00 -1.413677406122E+01 0.000000000000E+00 6.293044200456E+01 -4.490580826029E-01 0.000000000000E+00 -3.493719489992E+00 -6.694224343787E+00 0.000000000000E+00 -3.339008669930E+01 5.769616068328E+01 0.000000000000E+00 -6.030671110955E+00 1.519523526070E+01 0.000000000000E+00 -9.810298406257E+00 5.804699406922E+00 0.000000000000E+00 -7.815475043608E-01 2.731910737553E-01 0.000000000000E+00 1.204275166980E+00 1.589096261584E+00 0.000000000000E+00 9.112548213132E-01 5.247631193945E+00 0.000000000000E+00 -3.885721281261E+02 -6.732297114951E+02 0.000000000000E+00 -1.830397851160E-01 -1.613699775892E+00 0.000000000000E+00 -6.421524905951E+01 -1.203595410422E+00 0.000000000000E+00 2.939546358419E+01 5.798444174714E+01 0.000000000000E+00 -1.203417149993E+01 2.822095411864E+03
 0.000000000000E+00 0.000000000000E+00 0.000000000000E+00 0.000000000000E+00 0.000000000000E+00 0.000000000000E+00 0.000000000000E+00 0.000000000000E+00 0.000000000000E+00 0.000000000000E+00 0.000000000000E+00 0.000000000000E+00 0.000000000000E+00 0.000000000000E+00 0.000000000000E+00 0.000000000000E+00 0.000000000000E+00 0.000000000000E+00 0.000000000000E+00 0.000000000000E+00 0.000000000000E+00 0.000000000000E+00 0.000000000000E+00 0.000000000000E+00 0.000000000000E+00 0.000000000000E+00 0.000000000000E+00 0.000000000000E+00 0.000000000000E+00 0.000000000000E+00 0.000000000000E+00 0.000000000000E+00 0.000000000000E+00 0.000000000000E+00 0.000000000000E+00 0.000000000000E+00 0.000000000000E+00 0.000000000000E+00 0.000000000000E+00 0.000000000000E+00 0.000000000000E+00 0.000000000000E+00 0.000000000000E+00 0.000000000000E+00 0.000000000000E+00 0.000000000000E+00 0.000000000000E+00 0.000000000000E+00 0.000000000000E+00 0.000000000000E+00 0.000000000000E+00 0.000000000000E+00 0.000000000000E+00 0.000000000000E+00