#BIOSYM hessian 1
@Type: Hessian Update
@Units
 distance: 	A
 energy: 	Kcal/Mol
#header
@natom 67

#label
C1      C2      C3      C4      C5      C6      C7      C8      C9      C10     C11     C12     C13     C14     C15     C16     C17     C18     C19     C20     C21     C22     C23     H24     C25     C26     C27     C28     C29     C30     C31     C32     C33     C34     C35     C36     C37     C38     C39     C40     C41     C42     C43     C44     C45     C46     C47     C48     C49     H50     H51     H52     H53     H54     H55     H56     H57     H58     H59     H60     H61     H62     H63     H64     H65     H66     H67

#element
C  C  C  C  C  C  C  C  C  C  C  C  C  C  C  C  C  C  C  C  C  C  C  H  C  C  C  C  C  C  C  C  C  C  C  C  C  C  C  C  C  C  C  C  C  C  C  C  C  H  H  H  H  H  H  H  H  H  H  H  H  H  H  H  H  H  H 

#matrix
201
 2.782847526562E+03
 -2.027569630856E+01 2.811691189159E+03
 1.676331382546E+01 -1.176674690503E+02 1.986039501812E+02
 3.973677781784E+01 6.672639434965E+01 -1.172366430463E+00 2.791697061569E+03
 -4.828762675434E-01 -1.248248601820E+00 1.239389588837E+00 -2.348376689557E+01 2.764258081845E+03
 -1.473105295535E-01 7.759803910035E-01 8.246726349551E+00 2.369907806094E+00 -9.630792721515E+01 1.951672705200E+02
 -1.950697616884E+01 3.466039234975E+01 -1.187199078643E+00 -2.552278185997E-01 -1.314521171951E-01 2.752913361083E-02 2.807612165803E+03
 -3.383146206629E+01 6.018219349655E+01 -4.218438178295E+00 3.523525103136E-01 -1.012253391125E-02 3.211265877853E-02 -2.979386596562E+01 2.814966807346E+03
 1.302589166837E+00 -1.160692009992E+00 9.594253455334E+00 -2.225112236585E-01 1.032822592443E-01 2.732331555902E-01 4.315780577144E+01 -1.111369239653E+02 2.005885518078E+02
 3.872318347499E+01 -6.861329893375E+01 1.862659633416E+00 -1.989213866734E+01 3.488333454555E+01 -1.703025726528E+00 4.172801944138E+01 7.211916292300E+01 -2.676073941342E+00 2.786837267859E+03
 -8.216300377492E-02 5.049842481161E-01 1.131388085635E+00 -3.298333964122E+01 5.910773057024E+01 -2.381970497293E+00 -2.842434393715E-02 -4.250949800971E-01 1.014055246507E-01 -1.943870217574E+01 2.829318523127E+03
 4.149726704548E-01 -4.475008521764E-01 9.487610707178E+00 1.062087094410E+00 -2.499328911502E+00 9.488919393790E+00 1.093871312144E+00 2.241779014736E+00 9.065538995827E+00 2.860896499777E+01 -1.022225343541E+02 1.994630728531E+02
 3.467653968652E-02 -2.110699224182E-01 -4.021864343837E-01 -2.031523471399E-01 -4.850636100986E-02 -1.092733201802E-01 4.180435757382E+01 -7.309754172940E+01 4.096561706514E+00 -2.184490693101E+01 3.837691196969E+01 -2.234165707535E+00 2.635573276141E+03
 9.298388283428E-02 9.326077439100E-01 -1.705000219095E-02 6.603613741369E-01 1.677335206877E-01 1.081263882935E-01 9.096336161410E-01 -1.164033323901E+00 4.734610096972E-01 -3.443199208612E+01 6.220660770862E+01 -2.981568812330E+00 -2.209395100831E+02 2.893155825244E+03
 1.150039032831E-01 1.162420361287E-01 -2.095754808106E-02 -1.367917594073E-01 7.850690180404E-02 -7.014716901462E-02 3.221222100483E-01 -6.376627887691E-01 1.068806993609E+01 1.047490883604E+00 -1.349767409890E+00 1.032524237152E+01 3.970328361873E+01 -1.235098441698E+02 1.612156670035E+02
 -1.230157907329E+03 4.470419933114E+02 -2.242226051529E+01 -4.635673987071E+02 -8.871663408542E+00 -2.656056094091E-01 1.466022842540E-01 -2.288308515479E-01 -3.328829499005E-03 1.968840979714E-01 4.907575991503E-02 5.018741579454E-01 1.012754665859E-01 -4.096730076268E-01 -1.595124327069E-02 2.821869285123E+03
 4.412360665127E+02 -7.392052690270E+02 2.766160824018E+01 -7.344471607104E+00 -1.431032254897E+03 4.825709628015E+01 3.880139466306E-01 -6.749715827311E-01 -1.548404394083E-01 4.138860336315E-01 -1.497304689932E-02 -6.187743744864E-01 3.086853320786E-01 -1.080110441000E+00 -2.042831513102E-02 -1.607105586321E+00 2.778132615303E+03
 -1.666348064243E+01 2.549388507054E+01 -8.437946741547E+01 -2.794510303883E-01 4.967474100379E+01 -8.284936559274E+01 -7.654259493952E-02 3.137199757389E-01 4.493222125440E+00 -2.001733179433E-01 -5.354268868615E-01 -9.551342145779E+00 5.606635494723E-02 6.583322846421E-02 4.159932480993E-01 3.404271248177E+00 -9.738438738490E+01 1.965280402868E+02
 -1.194314046713E+03 -4.112976602924E+02 3.774062684730E+00 1.955950058956E-01 2.324540856706E-01 -1.096695625823E-01 -1.261009008211E+03 4.470936423035E+02 -4.163670631856E+01 -4.851155342929E+02 -1.240020769719E+01 -5.668876126525E+00 2.531061750163E-01 -6.936557927478E-01 2.503536856519E-02 -1.966360474919E+01 -3.368034853907E+01 6.920271980320E-01 2.820137295245E+03
 -4.117375235213E+02 -7.009133387614E+02 2.231480621785E+01 -2.118526012588E-01 3.881013322256E-02 -5.086351123248E-01 4.489396512197E+02 -7.465967787225E+02 3.688863789382E+01 -1.457505431276E+01 -1.510782029181E+03 5.472120551868E+01 -3.024226356022E-01 7.206958721828E-01 -5.575822991793E-01 3.464839576479E+01 5.881789638461E+01 -1.067894917793E+00 -2.572023178236E+01 2.840136465877E+03
 -5.577847383839E-01 1.918023457160E+01 -8.275011120017E+01 4.410187852103E-01 -7.016467071077E-01 -9.487068606875E+00 -4.151199836033E+01 3.686623691838E+01 -8.811941834077E+01 -4.402520028681E+00 5.723938445654E+01 -8.787171354916E+01 -1.952196695824E-01 -6.341344588768E-01 -9.536544399654E+00 -1.012507854695E+00 -1.168727809103E+00 9.540786268214E+00 4.400954046275E+01 -1.111471863197E+02 2.023570432747E+02
 4.787729879091E-02 3.482887305535E-01 2.078346793995E-01 -1.221784260749E+03 -4.184897328039E+02 1.420099849188E+01 4.477039253738E-01 -1.719167461130E-01 3.123760496642E-01 -1.223346527477E+03 4.407480939662E+02 -2.735464921586E+01 3.480151556376E-01 -1.130622713146E+00 3.951605062416E-01 3.686951117628E+01 -8.988959369474E-01 7.456889704203E-01 4.120443283730E+01 1.196300836193E-01 -2.753249347517E-01 2.807342276854E+03
 -2.373747934953E-01 5.495885421658E-01 -1.366310861480E+00 -4.211446392571E+02 -7.038665614463E+02 2.381167362816E+01 -1.762928587137E-01 -2.792221742853E-01 2.419131809884E-01 4.391283924034E+02 -7.352254968436E+02 3.087103900984E+01 -1.379391336153E-01 3.606068120363E-01 -2.130820692685E-01 -6.668223583609E+01 3.408813542747E-01 -1.139649571688E-01 7.021047936952E+01 -8.809449329648E-01 5.257651738148E-01 -9.941412733998E-01 2.803293820628E+03
 8.271419589530E-02 -8.575430793683E-02 -9.169432449739E+00 1.404303261845E+01 2.320514421431E+01 -8.345408224559E+01 -1.108940700417E-01 1.880236040378E-01 4.698085159320E+00 -2.618677885142E+01 2.941287933014E+01 -8.513550055305E+01 1.728708485662E-01 1.211979167704E-01 5.394762532090E+00 2.434013919305E+00 1.496443763913E-01 9.367669269085E+00 -2.523218821238E+00 1.965541663835E-01 9.848751059371E+00 1.443898082029E+01 -1.087839717303E+02 1.996810047814E+02
 6.897999243669E-02 6.713181636200E-01 1.573599586381E-01 6.887548159497E-01 1.738786342000E-01 8.453794533682E-03 -1.194858109751E+03 -4.082647309403E+02 1.021646574765E+00 9.941891571338E-01 -7.954368544287E-01 2.162283880247E-01 -5.214637810714E+02 5.695334911562E+00 -6.060799169391E+00 -3.958495157012E-01 -9.861950042796E-01 -1.896594174655E-01 -2.058024247085E+01 -3.308845037488E+01 1.082978088393E+00 -1.279496527869E+00 6.201838950562E-01 -4.248008417179E-01 2.772990930793E+03
 -2.244387158059E-01 -7.102563850035E-01 6.705288696621E-01 -1.003888512682E+00 -9.860465696646E-02 -1.018348966314E-01 -4.176701491402E+02 -7.031583439044E+02 2.061903713393E+01 -1.516867445406E+00 1.047232564873E+00 -3.857966468084E-01 8.254414945810E+00 -1.630410405656E+03 7.009814801620E+01 6.064248227573E-01 1.208142895490E+00 2.084152529133E-01 3.571068568600E+01 5.814286411069E+01 -6.210951968532E-01 1.869291630009E+00 -8.958366496400E-01 3.211761989771E-01 -2.548764021404E+01 2.948099574893E+03
 -1.229215534111E-01 1.027403431916E-01 4.389250569281E+00 1.609743480206E-01 -1.549629941435E-02 4.379095598042E-01 3.133749653517E+00 2.214396256322E+01 -8.391388457696E+01 7.315816473623E-02 -6.202474486910E-01 -9.555370991238E+00 -6.018470492678E+00 6.969812873511E+01 -8.156498294315E+01 -3.335060499230E-02 -1.456832306149E-01 -6.478281737808E-01 -2.115562034486E+00 -2.824395118780E+00 9.638556741658E+00 -3.755693698291E-01 2.969261717932E-01 -6.362638538823E-01 3.700021002435E+01 -1.222209401427E+02 1.887494352582E+02
 -9.672887463985E-02 4.914022243729E-01 5.612815702312E-01 4.074622785147E-01 5.908923012687E-02 1.535523391693E-01 3.473903745025E-01 -3.912179882798E-01 8.799566284779E-02 -1.195207629918E+03 -4.168673557998E+02 3.520455509859E+00 -1.334127633280E+03 4.935465325092E+02 -3.705858874938E+01 -2.222495725568E-01 -5.998272109013E-01 -1.127635896214E-01 3.825087866483E+01 1.490473119961E-01 5.733292877937E-01 -2.006312026784E+01 -3.246558958759E+01 6.848401794226E-01 4.865420961510E+01 1.578184830863E+00 5.937234105691E-01 2.880403527979E+03
 1.089267782782E-01 -6.319008601639E-01 -2.031151127049E-01 -1.128037000243E-01 -1.346941598523E-01 1.884574663985E-01 -1.305168350940E-01 3.027547292563E-01 -5.706505010083E-02 -4.082682316064E+02 -7.032046201894E+02 1.935186997955E+01 4.924761991206E+02 -8.209788500716E+02 3.740328266416E+01 6.477324144492E-02 4.662292616019E-01 -2.303197936990E-02 -6.850062374335E+01 5.232457671888E-01 -7.785459382901E-01 3.452644240409E+01 5.820482850898E+01 -1.036827929114E+00 8.168466121332E+01 3.073168188419E-01 1.674440724076E+00 -9.473476247221E+01 2.842689020863E+03
 4.029770016231E-02 4.798662388476E-01 4.235710589341E+00 -2.236103548653E-01 2.366438316944E-01 4.574224877603E+00 -6.105212471778E-02 -3.936951199184E-01 -1.010990396568E+01 2.276228935970E+00 1.868176909749E+01 -8.442507065085E+01 -3.601387609873E+01 3.782895619719E+01 -7.927091525031E+01 4.930727491960E-02 -1.614833788996E-01 7.815557961191E-01 3.112793208068E+00 3.894963690964E-01 1.127266200541E+01 -1.240375962416E+00 -2.403799203902E+00 9.246618589694E+00 -3.809672819643E+00 6.628491208979E-01 1.011479952481E+01 3.868089150363E+01 -1.082174447091E+02 1.890876902377E+02
 1.555976333389E-01 -1.910668796617E-01 -1.182515525193E-02 6.421948774101E-02 1.788466119902E-03 -1.379444226021E-01 1.306148366090E-01 2.138308117568E-01 5.143217765074E-02 2.171010806643E-01 -2.315908700510E-01 1.177085175093E-02 4.316324250076E-02 -2.420108478373E-01 -6.981073735925E-03 -3.003443765652E-02 7.594006155262E-02 3.640566647808E-02 -1.284298950222E-01 9.580649071485E-02 -3.217751448401E-02 -2.882019541887E-01 2.877506123016E-01 -5.254205340521E-02 -2.237908664378E-01 3.925305477031E-01 -7.987513090223E-03 -6.751342681996E-02 -7.239181297182E-02 -1.017288447493E-01 2.805525495719E+03
 -1.702814779613E-01 3.275273792157E-01 4.516946205195E-03 3.736597653183E-02 -1.210959729909E-01 -3.061587709814E-02 -4.127634085355E-02 -5.918573687657E-01 3.179772012783E-03 -1.312004139097E-01 1.816457055183E-01 1.402043169165E-01 8.899312918987E-02 -7.354948451169E-02 -4.483471017580E-02 -3.812025421737E-03 -9.555659361339E-02 2.658753214777E-01 -4.590316823207E-02 1.811778825320E-03 -7.852291830206E-02 1.289533908961E-01 -1.965321614086E-01 -6.015117672034E-02 7.943100784624E-02 -6.796650633513E-02 4.114895953367E-02 -6.310596553515E-02 2.032063515968E-01 -1.738571235078E-01 1.023852490488E+00 2.798064477111E+03
 -1.511611325456E-01 9.588024405963E-02 -1.156817811426E-01 1.360427967240E-01 1.387821583766E-01 1.428887606918E-01 -7.645196394477E-02 8.020458932348E-04 4.541133993347E-02 -7.696602924868E-02 1.116476742019E-01 -6.600950088837E-02 -5.407599006724E-02 1.163865927100E-01 2.777334183492E-02 1.047644172879E-01 -1.686289358242E-01 4.526382787686E+00 7.794171738880E-02 -9.256764544895E-02 6.669556798188E-03 1.080770060603E-01 -1.174374060572E-01 5.528019875022E-02 8.191524232434E-02 -9.367326538914E-02 2.752147466691E-02 5.651296672736E-02 -6.287457981895E-03 1.530589725071E-01 -3.796788528401E+01 -9.438451972929E+01 1.973113437139E+02
 9.581499731330E-02 -3.113188141999E-01 -9.029951056647E-02 1.601546100130E-02 -3.252021058654E-03 2.379911474343E-02 -1.338967987035E-02 7.614983262142E-02 2.043161449627E-02 6.174462245403E-02 -1.562804472721E-01 -6.220845059170E-03 -3.239858086061E-02 -1.105222164524E-01 -7.047592921825E-02 -1.153357199580E-03 1.998492325970E-01 -1.021999474655E-02 1.647128005483E-02 1.015453883750E-01 -5.266481615521E-02 -9.660764971697E-02 1.718654952297E-01 -5.968495937242E-02 -1.780096422995E-02 1.747067537144E-01 3.346071107157E-02 5.577260161186E-02 -4.310169782969E-02 -8.737209095829E-02 4.151037159623E+01 7.178546504805E+01 -3.526812435498E+00 2.781982564262E+03
 1.107037219642E-01 2.969159910236E-01 2.847448745141E-02 3.966920957674E-01 2.865043398514E-02 8.709486350693E-02 3.969743483098E-01 -2.066674552221E-01 1.408854103332E-01 6.640009722036E-01 -4.212353141464E-01 1.564620458122E-02 3.166877085571E-01 -1.019445230380E+00 1.493671266746E-01 -2.517972148366E-01 -4.530172735952E-01 2.207780006331E-02 -4.825367031699E-01 4.349442377040E-01 -9.964644164019E-02 -7.460969931398E-01 3.675803967125E-01 -7.375755715003E-02 -1.075007111158E+00 1.561091474636E+00 -1.242014490292E-01 -5.252964164664E-01 1.052849067983E-01 3.697669084332E-02 -1.214739868717E+00 -1.605457779000E+00 4.489851919824E-01 2.774783827728E+02 2.854902168060E+03
 1.635530635441E-02 2.718952717342E-01 -1.527208502272E-01 -1.428331389887E-01 1.945764125002E-01 -1.886025619326E-01 -3.190208679216E-02 -2.496438404999E-01 -1.122551261390E-01 -3.731563331629E-02 1.322053810443E-01 -3.726210562956E-01 4.529978495161E-02 -6.225847020179E-02 3.312404418271E-01 8.099845394678E-02 9.996704809880E-03 4.551377849045E-01 -2.550067382882E-02 -2.938959021650E-02 5.225294686760E-01 2.324576860764E-01 -3.045497616268E-01 5.017962529907E-01 -1.108397319373E-01 2.417459862916E-01 -4.983184703393E-01 -8.492021898782E-02 5.190906064061E-02 6.135809542383E-01 -8.885202007142E-02 -7.885786334952E-01 1.093514715711E+01 -4.662313805960E+01 -1.031847856654E+02 1.539420665327E+02
 -1.994441253292E+01 -3.533873280721E+01 1.483736032027E+00 3.802234856291E+01 -2.196112493117E-01 3.240952073141E-01 -1.375870120957E-01 6.158737948722E-01 1.266679058582E-01 -2.536538150820E-01 -1.609513015357E-01 -4.586918734057E-02 -2.180780158323E-01 6.428229452201E-01 -1.032905100092E-02 -1.246437722467E+03 -4.322198414864E+02 1.342751171575E+01 2.599324605380E-01 -2.238193852121E-01 -1.717537976023E-01 3.687937301972E-01 2.386317134288E-01 -4.190907944428E-03 6.332921104682E-01 -7.247508708394E-01 8.184247949824E-02 4.612256963392E-01 -2.899442362839E-01 -8.006238969857E-03 -1.924960165246E+01 3.420765517933E+01 -1.395278395584E+00 -9.073727633112E-02 2.776087929417E-01 -4.080263058441E-04 2.774996493828E+03
 3.621765806225E+01 5.922271120753E+01 -3.721378427778E+00 -6.838926066084E+01 -6.906186863835E-02 5.841779405502E-01 -3.004055866749E-01 7.563363545712E-01 1.898077738847E-02 -2.848202655600E-01 8.341546250645E-03 -1.838514749020E-01 -1.591790790563E-01 1.038251834304E+00 2.476792359634E-01 -4.375596827227E+02 -7.222526460216E+02 2.321876507137E+01 3.956873365268E-01 -6.379825321221E-01 7.053017257564E-01 5.422186226282E-01 3.229759399093E-01 6.969864023074E-01 7.114595212464E-01 -9.205525552145E-01 -1.885774861858E-01 3.720781090055E-01 -5.658283489289E-01 4.880300959841E-01 -3.279349081597E+01 5.705358741551E+01 -1.006316922709E+00 -2.375666777452E-01 3.892732994600E-01 2.720553234500E-01 1.396089287077E+01 2.799620114674E+03
 -1.839118731627E+00 -3.922491936077E+00 1.050547872650E+01 1.126621513348E+00 1.330049231937E+00 8.609439356202E+00 1.127057756015E-01 -1.777514261502E-02 -1.687634732972E-01 -2.958531611579E-01 -3.582374337405E-01 1.581279228122E-01 5.613945306693E-03 -1.541701749845E-02 -8.886636170080E-02 1.932459151340E+01 2.551717270433E+01 -8.389197400620E+01 5.793182463068E-02 4.818397638236E-01 4.596924941858E+00 3.844543559201E-01 1.878734818617E-01 4.368667046637E+00 6.973704400591E-02 -4.550850478890E-02 -1.038568590729E-01 1.259985536477E-01 -8.073632701110E-02 -3.913956950396E-01 1.054124333836E+00 -3.879577613964E+00 8.698685837398E+00 3.834287526008E-01 -1.203384765473E-01 -1.342954827642E-01 -1.225587602580E+01 -1.123756311398E+02 1.963517628515E+02
 2.584903841503E-01 -6.701222375210E-01 2.813512933741E-01 -1.881757630252E+01 -3.143673297513E+01 1.359804641839E+00 2.252615686373E-01 4.704362472834E-01 3.105682995666E-02 4.143641073245E-01 -4.616970459562E-01 -7.378112242828E-02 7.579594026279E-02 -3.706260712343E-01 5.732060494819E-02 -7.606779218229E-02 3.559221601927E-01 3.736637977449E-01 -2.016807167612E-01 1.392089545423E-01 2.720371514176E-02 -4.505934384944E-01 5.564844769798E-01 -4.975999749134E-02 -4.538942502632E-01 7.876453146632E-01 -9.573816190728E-02 -9.772000122936E-02 -2.272402556243E-01 1.497080614913E-02 3.923268671796E+01 -6.892550242966E+01 2.335274936972E+00 -2.314336073638E+01 4.000365806709E+01 -9.753056656259E-01 3.970921509648E+01 6.648514638568E+01 -1.780876456667E+00 2.770300341378E+03
 3.844905087577E-01 -8.164930615789E-01 -4.758559915625E-01 3.350818680369E+01 5.537414260082E+01 -2.422113825497E+00 4.245357470350E-02 5.190357717547E-01 7.225784722034E-02 1.560022912149E-01 -3.081072147708E-01 -1.927099714890E-01 -2.617068913634E-02 1.188997025024E-01 1.552250575985E-01 -7.191691260498E-02 5.766519279373E-01 -5.634798094445E-01 1.942076608616E-02 -7.543670505232E-02 1.644007209039E-02 -6.097073298244E-02 4.162270982577E-01 2.314938965118E-01 -3.606696933482E-02 1.720847607498E-01 -1.082992202837E-01 9.860032842107E-02 -2.832043993185E-01 2.044027888471E-01 -3.939802110254E-01 5.814139027902E-01 -2.123222978375E-01 -4.223142235497E+01 7.380722119255E+01 -1.190856598482E+00 -6.556685288877E-01 -7.004026805479E-01 1.090550907066E+00 -3.824812351208E+01 2.753453989599E+03
 1.819704398566E-01 1.190374060001E-01 -5.001207430953E-02 -8.809635055677E-01 -2.637839677152E+00 8.189694135020E+00 4.572832860274E-02 -1.451020939341E-01 4.545168454151E-02 -1.597034473790E-02 -2.801891627100E-01 2.661536431756E-01 -1.346859203918E-01 -1.964055082121E-01 -2.949639786914E-01 -7.026483578362E-01 -8.115086523927E-01 -9.120915653795E+00 -1.529061815881E-01 1.910474902252E-01 -3.343804729190E-01 1.763996968547E-01 4.848363932667E-01 3.975504184765E+00 2.386966105010E-01 -7.077965669390E-02 2.990682053204E-01 2.810979710398E-01 2.765455711641E-01 -5.503327266332E-01 -8.088314934851E-01 1.714328991899E+00 9.552330381496E+00 2.284650818104E+00 -3.133444864833E+00 1.237386448057E+01 -3.564195318681E-01 3.528349201935E-03 8.826701915470E+00 -3.420555191565E+01 -9.141691447357E+01 1.886729897889E+02
 -1.170344784719E-01 4.728885343545E-02 4.303075983910E-02 -1.728209761386E-01 -5.047171018136E-02 1.075840840403E-01 -1.177642538209E-01 -7.608200586502E-02 -4.199803889914E-02 -2.396366068278E-01 2.356017124856E-01 -5.806350295922E-02 -7.492500282792E-02 3.713165103507E-01 6.039571456202E-02 1.126394663280E-01 3.220274180383E-02 6.761987775570E-02 1.709800451852E-01 -1.446550250585E-01 1.059304526211E-01 3.560672404163E-01 -2.645400042968E-01 1.242349671629E-01 2.332608617769E-01 -4.587364117293E-01 -1.179475000240E-02 9.895555681262E-02 -2.063804225702E-02 2.202075095000E-01 -1.233588657039E+03 4.341501606038E+02 -4.551370561038E-01 -5.071577788703E+02 -1.709727589134E+01 5.363188433988E+00 -1.216499897827E-02 5.361362700412E-03 -9.743091692835E-02 2.123946788742E-01 2.569037952229E-01 -1.101687059228E-01 2.844191978571E+03
 -1.788854087525E-01 5.708216904435E-03 -7.719114619162E-03 -2.722230450692E-01 2.830527209321E-02 -1.255358643484E-01 -3.214215025617E-01 8.966793057800E-02 -1.464003898598E-01 -5.925106287684E-01 4.772528874129E-01 -1.763068184560E-01 -2.491669111086E-01 8.536940999929E-01 -4.662981681491E-02 1.516095503268E-01 2.095621441871E-01 1.429680834561E-01 3.612868351879E-01 -3.930906900535E-01 2.499443727010E-01 7.029161548848E-01 -4.756102645249E-01 1.876915710393E-01 8.197831760953E-01 -1.283849536514E+00 -5.172334679800E-03 3.616234578121E-01 -3.881724404897E-02 1.696118318884E-01 4.368449309307E+02 -7.321618182769E+02 1.741592558070E+01 -2.701348677351E+01 -1.538987708854E+03 5.404904609185E+01 -4.531560763023E-02 -8.279690822652E-02 8.034626681123E-01 4.759698977141E-01 2.399713756376E-01 -2.144241553813E-01 2.735594456395E+01 2.887463996394E+03
 -1.126511204985E-01 -3.527039331329E-01 -6.064745223112E-03 -4.914341490852E-03 -2.122347910706E-01 9.104910381628E-01 -2.061615705385E-02 3.144458496870E-01 3.693263475411E-01 -1.419436451059E-01 7.164545315137E-02 2.922759504487E-01 -1.265878171450E-01 4.129454637306E-01 -2.021678887911E-01 6.241977589406E-02 1.529063981966E-02 -5.888054043151E-01 1.752939637414E-01 -5.522357739222E-02 -7.403503434971E-01 8.404420654135E-02 7.549716873087E-02 -5.602681411352E-01 7.476013470516E-02 -3.887997259561E-01 7.761191885384E-01 1.161180097042E-01 -1.381282092389E-01 -1.498931813504E-01 -2.943619820423E+00 1.928787870910E+01 -8.568147500035E+01 6.005342253851E+00 5.299175139498E+01 -7.941449847391E+01 -6.348205929126E-03 -2.866779373079E-01 4.141503398234E+00 1.437306339910E-02 -2.753389988214E-01 -1.057691454661E+01 -2.901923405601E+01 -9.542763306027E+01 1.892990606400E+02
 -1.950899242071E-01 3.392458000981E-01 -1.916501747611E-02 -2.248521813820E-01 -5.652984332615E-02 2.502854947939E-01 -1.183968371654E-01 -1.826553501373E-01 -9.555141421235E-02 -2.691216445444E-01 3.674699567346E-01 -5.601808463298E-02 -9.003059721972E-03 3.475818990747E-01 1.355511436382E-01 -1.955348802060E+01 3.468845837918E+01 -5.471847341064E-01 9.658931194395E-02 -2.480567827007E-01 2.630039410267E-01 3.716059143352E-01 -3.928511625497E-01 3.398320195363E-01 2.527947611203E-01 -4.908010554309E-01 -1.646045434743E-01 1.178255021403E-02 5.014783440754E-02 3.002956911755E-01 -1.220633614751E+03 -4.248829969294E+02 3.617662748814E+01 1.517255339809E-01 1.999499201139E-01 1.505101488263E-01 -1.173911900614E+03 4.237158912840E+02 -5.067375423654E+00 -4.715854020895E+02 -8.987921455571E+00 6.411706215974E+00 -1.978345590167E+01 -3.412259173960E+01 1.838983702024E+00 2.751458181377E+03
 -1.848584436487E-01 1.223099318039E-02 4.798344384622E-01 -1.829865930393E-02 1.461689011252E-01 -5.163309482471E-01 -1.410535960136E-01 -1.520880292201E-01 -3.869203482597E-02 -1.419972689315E-01 4.204176234394E-02 1.035422173997E-01 -1.388339722654E-01 -2.375447224537E-02 -2.815073810050E-01 -3.288924084458E+01 5.811692309382E+01 -9.706448710459E-01 1.569804338924E-01 1.905415303429E-01 -1.427248531146E-01 5.612402937100E-02 -1.058810494873E-01 -2.277545479533E-01 1.553426808123E-01 -1.515449716289E-01 2.595771998627E-01 1.398205740851E-01 9.303743832116E-02 -2.411607003360E-01 -4.280067265587E+02 -7.125432219055E+02 3.166622241612E+01 8.601565850865E-02 -5.902570247026E-02 -2.386482001705E-01 4.253116773881E+02 -7.151251444715E+02 2.178340556810E+01 7.050844209939E-03 -1.495396743919E+03 4.988707912921E+01 3.447072514145E+01 5.937269004960E+01 -3.005433855086E+00 3.289212357749E+00 2.805325053853E+03
 9.271749474322E-02 7.139992937080E-01 4.333255077993E+00 -6.690536317352E-01 -3.473345138680E-01 -8.856030266577E+00 7.085037308251E-03 -1.549224022152E-01 -1.190272352559E-01 6.517449382896E-02 2.333065360753E-01 -7.502892945630E-01 1.650045176702E-01 4.532651224420E-02 7.818972063060E-01 1.012596162103E+00 -1.164620294531E+00 9.810605048976E+00 -4.873186095608E-02 -1.566654456687E-01 9.464164023358E-01 3.351440767605E-01 -4.635914147111E-01 8.970734083838E-01 -4.895518904584E-01 5.415009151073E-01 -8.853152582593E-01 -3.350445953637E-01 -1.247229552650E-01 1.431047178793E+00 3.634933015933E+01 3.126389477207E+01 -8.391845572616E+01 3.584335841978E-01 -4.358897416687E-01 -9.781132690432E+00 -8.424169089201E-01 1.894324544656E+01 -8.160168264961E+01 5.568220664093E+00 5.250150952470E+01 -8.478624228447E+01 -1.105656967684E+00 -6.556896804867E-01 9.382597648198E+00 -3.751364074502E+01 -1.003632196745E+02 1.963769716003E+02
 -1.430716688159E-01 2.157119118329E-02 -5.389528620542E-03 -2.681109412002E-01 -2.118954097412E-02 -8.685719726598E-02 -2.872884418414E-01 2.219269769926E-02 -8.411013951846E-02 -5.175688089471E-01 3.961854609610E-01 3.473960705623E-02 -1.971242813151E-01 7.642209002631E-01 -9.596760500708E-02 1.693968683812E-01 2.022790425963E-01 -7.165247534065E-02 3.247700866913E-01 -3.543297066171E-01 3.342604857019E-02 5.821492443637E-01 -3.574079615198E-01 2.023263803341E-02 7.863953552620E-01 -1.199543875132E+00 1.220597596532E-01 3.401645239946E-01 -1.705176489097E-02 -3.060194342070E-02 3.271985805425E-01 -1.375592620431E-01 1.006936468799E-01 -1.504602698880E+03 -5.272723988814E+02 4.080898103173E+01 -1.352700989369E-01 -1.191312709079E-01 -2.767402407126E-01 -1.277237545136E+03 4.354454619254E+02 2.074383645949E+00 4.862362025709E+01 -1.786709395444E+00 -8.144880085795E-01 3.890040457348E+01 -1.935181436728E-01 -9.723576471890E-01 3.071940925300E+03
 2.817743701009E-02 -6.505539931365E-02 -1.694058141789E-02 -3.007997466535E-02 -4.098925732457E-02 2.088952023769E-01 4.747515718943E-02 8.989875334975E-02 3.073014996249E-03 6.619083603762E-02 -2.711753703163E-02 -2.751109526031E-02 2.598177999500E-02 1.907596412182E-02 9.465757456793E-02 1.958052459507E-02 1.900305296420E-03 5.110976226502E-02 -1.191192348632E-02 -2.284091638305E-02 6.002250842837E-02 -2.336372850935E-02 3.727634091027E-02 8.275740795018E-02 -1.100367949493E-01 8.959326905189E-02 -5.947116699755E-02 -4.876779058855E-02 -6.692156191107E-02 1.402746116679E-01 -3.532434669283E-02 -6.534015329315E-02 1.301096663871E-01 -5.376437339161E+02 -8.652517964013E+02 3.666384581085E+01 -5.774245383920E-02 -3.376723373720E-02 -2.149196615322E-01 4.199747670196E+02 -7.254019933398E+02 1.637604414059E+01 -8.576888011081E+01 2.221854074270E+00 1.869336016864E+00 7.202822126745E+01 -1.646792435086E-01 -1.033736813815E+00 8.936873682558E+01 2.537125923421E+03
 -1.476009621909E-02 4.337705305042E-02 -3.799009435032E-03 1.114399131549E-02 2.251374442935E-01 4.727478578179E+00 1.042483569180E-02 3.688630680988E-02 3.777598790969E-02 -1.067512245016E-02 9.597552473798E-02 -1.264008922741E-01 2.152442122100E-02 1.354412908021E-01 1.517609041837E-01 2.019725128423E-02 -2.918770871401E-02 9.343188073066E-02 1.364998952105E-02 -8.970485002140E-02 9.190708548884E-02 1.089487597531E-01 -1.162726448878E-01 9.904138925103E-02 -1.007187772284E-01 -6.131660191704E-04 -6.004852502318E-02 -6.123614866889E-02 -5.852254018439E-02 3.283385611772E-01 -7.810844759849E-02 -2.837842664342E-01 -1.035653746229E+01 4.106991685969E+01 3.689331119015E+01 -7.197890970238E+01 -1.680353593814E-02 1.961422827270E-01 4.497768503993E+00 3.353055192791E+00 1.588447652570E+01 -7.694753673412E+01 2.736641191407E+00 1.369012286719E-01 1.116343566419E+01 -3.054082999012E+00 3.517807806563E-01 1.011578400494E+01 -4.770455245932E+01 -8.458161105882E+01 1.544518703506E+02
 -6.897419965547E-02 6.903754109434E-01 -6.595743688423E-01 -1.226738427027E+03 4.459870968067E+02 -1.572197678226E+01 2.945780671262E-02 -5.563300747633E-01 5.988729274523E-03 2.258739108475E-02 1.966219520798E-01 -3.879784014147E-01 1.461695839469E-01 -1.817429750866E-01 3.417946946798E-01 4.023601037892E+01 -7.923583707265E-01 -1.501282093926E-01 -1.061660115367E-01 6.132846642686E-02 3.009003565353E-01 -1.979958656949E+01 3.542502543532E+01 -1.353453267909E+00 -3.406142309345E-01 3.478878869121E-01 -3.292010469924E-01 -2.889227505082E-01 1.885684489428E-01 5.288505735134E-01 8.682516546362E-02 -3.771881087062E-01 -1.004489389498E-01 6.764014650673E-02 -2.052185775635E-02 2.621670272666E-01 2.931175712466E-01 6.329505566544E-01 -1.839312075732E-01 -1.137620687662E+03 -3.892267936411E+02 2.542828362300E+01 2.848210889893E-02 2.819220177920E-03 -4.531875499787E-02 3.678397657661E+01 -2.592375769022E-01 6.709134002621E-01 -1.781027808382E+01 -3.236469298299E+01 1.560827189031E+00 2.730529907454E+03
 -3.500383884442E-01 8.885330574449E-01 3.026352246874E-01 4.554049344840E+02 -7.417085602093E+02 2.690444279097E+01 -1.438214343629E-01 -4.754999916015E-01 -9.787233559132E-02 -3.093703817348E-01 4.257732345559E-01 4.239599178950E-01 -8.151117010510E-02 1.318660565132E-01 -2.933222980656E-01 6.705838564611E+01 -1.017847111476E+00 1.805078695979E-01 6.894931196331E-02 -6.218588529953E-02 8.354395692171E-03 -3.279941256866E+01 5.898889219765E+01 -1.585684201578E+00 3.529374855178E-01 -6.005725240148E-01 2.064136657177E-01 8.447352286060E-02 3.111251734274E-01 -2.453209092865E-01 2.939377057456E-01 -3.286410772907E-01 2.038854453781E-01 2.280755968163E-01 2.934048254853E-01 -1.068907806637E-01 3.946956018314E-01 5.422663046520E-01 -1.352923729620E+00 -3.872886090632E+02 -6.667749478135E+02 2.863815485279E+01 -2.779600076177E-01 -3.819406289364E-01 7.765968729415E-02 -6.542906491642E+01 2.684226790614E-02 3.385663375793E-01 3.101927875264E+01 5.748769250238E+01 -2.108671978200E+00 -7.374485863417E+00 2.814779908103E+03
 -1.299876526738E-01 7.899876326860E-01 4.445194861223E+00 -1.634434429868E+01 2.652486900806E+01 -8.355853916479E+01 2.737348102629E-02 -1.953421141468E-02 -5.480386991673E-02 3.812757387828E-01 2.389935292627E-01 4.299809540495E+00 1.464164818112E-01 -1.259448126317E-01 3.223293302438E-01 -2.043092753991E+00 2.546499550165E-02 9.237643274885E+00 -2.340411227650E-01 -2.871203936934E-01 4.337696958155E-01 1.075760287329E+00 -1.573833337349E+00 1.011822903990E+01 -3.198005113663E-01 3.232718870476E-01 -4.189484407908E-01 -2.228333069554E-01 1.452466751853E-01 6.249206067889E-01 4.692174099293E-01 2.542040535409E-01 4.339144908727E+00 -3.145495168381E-01 3.532379018884E-01 5.789782972098E+00 -2.804985079794E-01 -1.810257125893E-01 -9.032640971064E+00 2.601958555149E+01 2.713879950624E+01 -8.194068690790E+01 1.780183811619E-01 -2.981959722205E-01 -3.178696033632E-01 1.867448232781E+00 5.071432067872E-01 8.642539046404E+00 -1.795556798949E-01 -8.517804324690E-01 9.760688327185E+00 -1.307918129795E+01 -1.207519941777E+02 1.922198678740E+02