#BIOSYM hessian 1
@Type: Hessian Update
@Units
 distance: 	A
 energy: 	Kcal/Mol
#header
@natom 67

#label
C1      C2      C3      C4      C5      C6      C7      C8      C9      C10     C11     C12     C13     C14     C15     C16     C17     C18     C19     C20     C21     C22     C23     H24     C25     C26     C27     C28     C29     C30     C31     C32     C33     C34     C35     C36     C37     C38     C39     C40     C41     C42     C43     C44     C45     C46     C47     C48     C49     H50     H51     H52     H53     H54     H55     H56     H57     H58     H59     H60     H61     H62     H63     H64     H65     H66     O67

#element
C  C  C  C  C  C  C  C  C  C  C  C  C  C  C  C  C  C  C  C  C  C  C  H  C  C  C  C  C  C  C  C  C  C  C  C  C  C  C  C  C  C  C  C  C  C  C  C  C  H  H  H  H  H  H  H  H  H  H  H  H  H  H  H  H  H  O 

#matrix
201
 2.793664839751E+03
 -1.317673888664E+01 2.808858780743E+03
 -4.832750401942E+01 -1.683772653399E+01 1.956915435874E+02
 3.815433995442E+01 6.808918029305E+01 -1.706318526549E+00 2.797202120801E+03
 2.186973912636E-01 -2.320862969036E+00 9.174613513512E-01 -2.023973065578E+01 2.759826475105E+03
 7.838952916519E-01 -1.431095930419E+00 1.584813105512E+00 -5.129853587259E+01 -3.159910127430E-01 2.182869807734E+02
 -1.895001266957E+01 3.358512143084E+01 3.637490912532E-01 1.137826729793E+00 -1.689529138663E+00 -4.228861493844E-01 2.817954148145E+03
 -3.247889535484E+01 5.800821909795E+01 4.694762171352E-01 1.803765055995E+00 -2.167487146943E+00 -1.091316245373E+00 3.237709041286E+01 2.760824732000E+03
 7.151953735572E-01 -1.035970218866E+00 9.488113435661E+00 -3.447711419183E-02 -2.239191823236E-01 4.052842558202E-01 -4.746890609560E+01 -2.240150750719E+01 1.898518096075E+02
 3.754010031071E+01 -6.817854901975E+01 -1.529003769853E-01 -1.804175757368E+01 3.341049459085E+01 -5.086286559198E-01 3.970759232249E+01 6.770892238883E+01 -4.838004667151E-01 2.799071370995E+03
 1.702691176797E-01 6.274769966552E-02 7.612113532146E-02 -3.192404660230E+01 5.796294942772E+01 1.198796859686E-01 -1.103170968376E+00 -1.209458153108E+00 2.030008493879E-01 8.377683699707E+00 2.802807600833E+03
 -7.079131714518E-01 1.169282530250E+00 8.649770232957E+00 7.865176266483E-01 -1.052181005356E+00 1.075207363841E+01 1.320567983392E-02 -9.313407957301E-01 1.034071890863E+01 -5.279628459463E+01 -6.372182161190E+00 1.959117060083E+02
 2.518480861147E-01 -5.210373712433E+00 -8.150350529709E-01 7.615253066002E+00 -1.073975356562E+01 5.136852574142E+00 5.291686431760E+01 -8.737461665287E+01 -1.289155791105E-01 -2.460259950662E+01 4.219612408215E+01 1.170438006001E+00 2.719561714563E+03
 -7.576489183316E-01 -1.411891765285E+00 -7.293629715159E-01 2.807241861514E+00 -5.070799188055E+00 4.171830509619E+00 1.358605746122E+00 -1.227634366674E-01 3.838841673101E-01 -3.579424191286E+01 6.418236306170E+01 7.184749323681E-01 -1.365714449424E+02 3.137226860365E+03
 7.681378362724E-02 1.410444277741E-01 9.292168962886E-01 -5.016018369024E-01 5.261593068881E-01 -2.342561158427E+00 -7.603561191464E-01 1.917713639521E+00 1.112011776268E+01 1.055853252036E+00 -8.538688082282E-01 9.430694072933E+00 -5.103991272760E+01 -1.292673036659E+01 1.640345032096E+02
 -1.218852006656E+03 4.433672922711E+02 1.930138870651E+01 -4.682262174062E+02 -1.149669135080E+01 6.471532438680E+00 -7.460764995775E-01 -6.943747944657E-01 9.701297418883E-02 -2.822403325343E-01 -1.027819610388E+00 -4.462069293671E-01 5.473869859506E+00 4.237342741055E+00 -7.826537178729E-02 2.825812917954E+03
 4.381811114997E+02 -7.321799616740E+02 -4.304407640135E+00 -1.135174121024E+01 -1.428360202719E+03 4.596135255698E+00 1.151219004155E+00 1.966066914589E+00 -8.556611288550E-02 1.438265256278E+00 7.341508566921E-02 1.502914686912E-01 1.349461926345E+01 6.388337743403E+00 -4.409668169657E-01 4.717553348588E+00 2.765543128068E+03
 1.974180431717E+01 -4.652410237177E+00 -8.275839127097E+01 8.048427614470E+00 7.173884861041E+00 -8.122011788007E+01 1.517874496132E-01 7.690144047853E-02 4.797769129439E+00 -3.329528401670E-01 2.162349116749E-02 -8.790957761785E+00 -8.716051203555E-01 -5.353265881695E-01 1.253882250303E-01 -5.280477279509E+01 -1.254095530946E+01 1.929419063074E+02
 -1.210472344956E+03 -4.160502821687E+02 2.388370350079E+01 1.201013638650E-02 1.571933066624E-01 -4.144321638901E-01 -1.242538338643E+03 4.433766634003E+02 1.702472582996E+01 -4.700016088724E+02 -5.544245113309E+00 7.446225617623E+00 -2.017801001938E-01 -1.051135461297E-01 -3.400484854261E-01 -1.948218066767E+01 -3.288915197079E+01 7.660629887843E-01 2.808640829657E+03
 -4.140373196060E+02 -6.990624747944E+02 1.128803549577E+01 -5.169863263941E-01 1.647146040493E-01 9.601462794257E-01 4.514004319501E+02 -7.353864823110E+02 -3.267453326299E+00 -8.636265296978E+00 -1.456936491919E+03 5.101732389041E+00 5.203302378162E+00 2.764491194212E+00 -3.398332259263E-02 3.422128805683E+01 5.825810385671E+01 -7.126841246044E-01 -2.230263888037E+01 2.771902328441E+03
 2.281876993767E+01 1.112011047152E+01 -8.231771388008E+01 1.786262845050E-01 -4.567243748767E-01 -7.141315310237E+00 1.814698888973E+01 -3.413744610434E+00 -8.302076870765E+01 7.617329248253E+00 6.310251945555E+00 -8.197791778487E+01 -2.682397877423E-01 -7.886800163964E-02 -1.045079505048E+01 3.447576669550E-01 5.608604525571E-01 8.521380960501E+00 -4.719802797617E+01 -1.318920363045E+01 1.928052988774E+02
 5.514272103907E-02 3.165418566091E-01 2.921944521848E-02 -1.219515720559E+03 -4.181707681856E+02 2.087390045286E+01 1.446645728015E-01 3.813114598701E-01 -1.149275437544E-01 -1.211261412809E+03 4.344459017539E+02 2.134352429929E+01 1.827299223875E+00 8.480572977647E-01 1.060489450323E-01 3.773630379975E+01 -9.891561164517E-01 -3.471197764331E-01 3.991907850649E+01 -1.235978296883E-01 -1.042854613961E+00 2.791242736362E+03
 -2.515083572625E-01 3.923225856092E-01 4.159306135053E-01 -4.226444706146E+02 -7.041384846682E+02 5.279395212208E+00 6.883435414234E-01 6.082522746253E-01 1.361162970356E-01 4.378945076186E+02 -7.301064253515E+02 -9.451027903988E+00 -3.974247079031E-01 -2.441847106533E-01 8.913940077467E-02 -6.690835517317E+01 -6.411579386614E-02 9.504842155641E-01 6.731697809165E+01 -3.841133016287E-01 -1.620950368260E+00 1.074498035515E+00 2.793889973884E+03
 -5.112121055595E-01 6.142107751876E-01 -8.052481705464E+00 1.763764285207E+01 6.057674690503E+00 -8.657952076871E+01 4.309751162348E-01 6.445734231803E-03 4.239226759096E+00 2.346560856914E+01 -9.638800081433E+00 -8.357717115871E+01 -1.878144818919E+00 -1.498804647906E+00 4.815480250929E+00 8.677017053277E-01 -2.985903149008E-02 8.744856212302E+00 -1.406097991388E+00 -3.763158633062E-01 8.594931332756E+00 -5.073602025160E+01 1.343745311978E+01 1.953238753035E+02
 -1.197372841684E+00 2.190923563812E+00 -1.410741047883E-01 -2.338392879710E+00 3.479069733435E+00 2.944587809950E-01 -1.245432931618E+03 -4.504979575745E+02 2.473524249657E+01 1.642344103190E+00 1.814825413871E+00 -5.375581992940E-01 -5.908265645116E+02 2.108751143400E+01 9.995523684468E+00 8.174392043716E-01 -2.705470408848E+00 -9.059140065810E-02 -2.210718600686E+01 -3.767058205922E+01 7.184676212190E-01 -7.231451623601E-01 -1.284017539513E+00 -1.232483974217E-01 2.617147341672E+03
 -6.771604121774E-01 1.673832165664E+00 -8.809074075236E-02 -1.969315538532E+00 3.060626916505E+00 2.798927555985E-03 -4.669116614328E+02 -7.775633740240E+02 1.345343711900E+01 2.112207603804E+00 3.531686269939E-01 7.500005304945E-02 -4.749904477033E+00 -1.791117323925E+03 1.001221521313E+01 1.042175389981E-01 -2.662813468908E+00 -3.368897850786E-02 3.497582972973E+01 6.084417777971E+01 -9.826218103866E-01 -5.329458210914E-01 -9.062659940170E-01 3.413006752231E-01 1.934742211222E+02 3.008432115511E+03
 1.684335496404E-01 6.448454978599E-02 4.188766023398E+00 6.906867511048E-02 2.086134324801E-03 1.454403077021E-01 2.439014704486E+01 1.327471982184E+01 -7.940343907040E+01 -4.286074390218E-01 -4.079644558506E-01 -1.088808701504E+01 1.071752874236E+01 1.013638977310E+01 -7.448605672815E+01 1.770611065614E-02 7.522890475205E-02 -1.323725871895E-01 5.364727076287E-01 1.951154488357E-01 9.650603037109E+00 2.174800511434E-01 2.261224207342E-02 2.679281213261E-01 -4.838825274170E+01 -2.096473468166E+01 1.594502776135E+02
 -6.157656677036E-01 1.816045428429E+00 1.379718065847E-01 -2.125429820308E+00 2.542479860409E+00 1.628857202313E-01 1.052352356293E+00 2.247194345533E+00 -2.962692505348E-01 -1.234307890654E+03 -4.386236628067E+02 2.427961334601E+01 -1.217517779275E+03 4.320415147133E+02 2.041907665651E+01 4.644505605914E-01 -2.479134637906E+00 -3.066301446233E-02 3.896595664483E+01 -6.551103257768E-02 -4.421041740320E-01 -2.088023007822E+01 -3.552922558431E+01 1.013769104255E+00 4.740020950787E+01 -3.285700541642E+00 -7.908003966395E-01 2.824578491544E+03
 -7.002156427915E-01 7.278101071683E-01 1.874703960799E-01 -6.597463424786E-01 1.036355716825E+00 -2.902781263160E-01 2.082069026234E+00 1.261194215368E+00 -3.658419958248E-01 -4.387081344531E+02 -7.324326324574E+02 1.033561119536E+01 4.305630836909E+02 -8.023430246923E+02 -6.247061310171E+00 9.541956650645E-01 -1.030385650352E-01 -1.502919258186E-01 -6.841345260005E+01 3.309204987332E-01 1.261490514810E+00 3.405404189109E+01 5.898675701547E+01 -6.871267033682E-01 7.923174347399E+01 -1.113410321551E+00 -1.256913675477E+00 -1.269106592297E+01 2.892624728446E+03
 -4.252989156809E-02 8.908701965812E-02 4.379643246311E+00 -2.313029768490E-01 6.086865829587E-01 2.005206797941E+00 -7.234549095333E-01 -5.706421897792E-02 -1.159002358127E+01 2.284851315939E+01 9.473497164762E+00 -8.739763474643E+01 2.056619802882E+01 -6.870088057677E+00 -8.017899556700E+01 3.033222746906E-01 1.196941711338E-01 -2.492192284769E-01 1.106849571072E-01 -4.482218814285E-02 9.116182629494E+00 1.152390701196E+00 1.016227932117E+00 1.011942281273E+01 -1.033937155508E+00 2.647339944030E-01 1.185351309623E+01 -5.182623603929E+01 -2.671726604323E+00 1.922415063225E+02
 5.830271744164E-01 -1.981553749728E+00 4.732580837340E-01 3.142200634381E+00 -3.411909408633E+00 -4.722051087241E-01 1.384869778428E+00 -1.575192311659E+00 3.302142820408E-01 -1.525078907874E+00 2.645573748310E+00 4.562229183242E-01 -4.922762642190E+01 -2.319657315804E+01 1.427001984055E+00 5.613123727051E-01 4.730193912659E+00 -1.572866894700E-01 -3.037603133234E-01 1.805109737353E+00 -6.425920627036E-02 -1.986315138626E-01 -8.660101234453E-01 -3.734242753122E-01 1.235463015624E+00 2.478412758081E+00 -2.394736816360E-01 3.021134538026E+00 -5.697898700972E+00 -6.688070782820E-01 2.797391847955E+03
 1.504477615385E+00 -2.526231530912E+00 8.564951522695E-01 2.690156707133E+00 -2.279619685913E+00 -5.047762229045E+00 -3.736696594181E+00 -3.742760230165E+00 -1.893152488269E-01 -1.901688759164E+00 -2.415527867399E+00 -7.092355821200E-01 1.426332387982E+01 1.174647164690E+01 -8.738048376484E-02 -2.635680359869E+00 1.355834901161E+00 -2.583191142181E-01 3.345102960847E-01 -6.899230187016E-01 -2.147071569286E-01 8.001116805921E-01 1.430586937042E+00 1.096129950600E+00 5.932276484211E+00 2.986241708423E+00 -3.499004713836E-02 3.482831419469E+00 4.172051017643E+00 9.601439979159E-01 1.583194262033E+01 2.768704705636E+03
 1.906054157456E-01 -4.622975730954E-01 -4.472632255577E+00 3.012380124527E+00 -2.771350126028E+00 1.869923835065E+01 -5.779020433383E-01 -5.243249644355E-01 1.043959482407E+00 -4.557908432887E-01 1.545660429880E-02 1.885290669991E+00 1.073781418469E+01 7.645976116326E+00 -1.386922857590E+00 -2.074478981848E+00 -1.236908934061E-01 4.560869555877E+00 -7.749265279670E-02 -2.910641515124E-02 1.473196475264E+00 -9.652754186515E-01 -1.297855893473E+00 -3.195700729517E+00 6.186011888564E-01 -5.332012268399E-01 -5.582098216584E-01 1.711936138213E-01 4.309525719838E-01 -2.942794879979E+00 5.594790627479E+01 3.727108074068E+01 2.149054427952E+02
 8.751803398105E+00 -2.006571050674E+01 -1.128787421105E+00 2.568043499344E+01 -3.261755452913E+01 3.500321231381E+00 -1.405415829431E+01 -2.394151152518E+01 5.205833063833E-01 -1.489622358273E+01 -2.933333274586E+00 4.149929736249E-01 -1.234085991750E+02 -4.533553577961E+01 3.029123478460E+00 -3.433864617365E+00 2.874361876848E+01 -6.373554761224E-02 1.206723957563E+00 4.079736407732E+00 2.672215317311E-02 6.467189688729E+00 7.363140407084E+00 -6.952837389429E-01 3.518018910771E+01 2.800263255694E+01 -1.275669214099E+00 2.822296633180E+01 4.043144289701E+00 -1.063653635862E+00 -1.461986133816E+01 4.486739201505E+01 4.563050391846E+00 2.706162310888E+03
 1.043301582768E+00 -1.745856753015E+00 1.905656787278E+00 -8.022523680534E-01 3.668385681319E+00 -7.025418269248E+00 -4.048767652180E-01 -1.144099069064E+00 3.332937992705E-01 -3.675537087846E-01 -8.977628003007E-01 -3.553119113678E-01 1.821385400601E+01 1.460883562257E+01 1.433329235058E-01 -2.171641045651E+00 -2.093769875084E-01 2.642331435740E-01 -6.605527733387E-02 2.502291728374E-01 -1.047528274471E-01 2.064371626724E-01 -1.580773738491E+00 9.764593599105E-01 6.558596956377E-01 -1.062900308537E+00 -3.469747994166E-01 1.283826228428E+00 1.283498243355E+00 1.822372928781E-01 -1.223361012194E+01 -1.155838890041E+00 -1.960852566084E+00 4.739113662032E+02 2.963476796082E+03
 -8.048671225811E-01 -2.842042350717E+00 9.890446862526E-01 4.780836825881E-01 -2.532514804892E+01 -5.583133878341E+00 -1.230655829566E+01 -1.313976806014E+01 -5.144491606308E-01 -8.171683385257E+00 -5.587140372270E+00 -3.436799417942E+00 -5.619697349015E+01 -6.149598711388E+01 4.160912454969E-01 1.549905382277E+01 2.113980794845E+01 -1.265758037130E+00 5.018297975181E+00 2.444426726349E+00 2.333332719502E-02 7.481305048937E+00 1.370050410319E+01 2.720155785048E+00 1.611616487060E+01 2.619693709494E+01 2.330172357385E-01 6.944937353575E+00 1.457166926944E+01 4.116107762145E+00 1.565912834673E+01 -6.861066048604E+00 1.016927353187E+01 5.002774347949E+02 9.923258040107E+01 7.082642998896E+02
 -2.027404540816E+01 -3.498012173465E+01 2.170102729865E-01 4.013723855842E+01 -2.700631901129E+00 9.952657325588E-01 -1.848999587103E-01 -7.470191560813E-01 2.339952840944E-01 -5.334167116978E-01 4.840259737282E-01 4.497247541675E-01 -1.422100507875E+01 -8.710582987674E+00 2.805814673899E-01 -1.256390207903E+03 -4.325860730340E+02 2.731825510904E+01 -1.737851679205E-02 7.669048898608E-01 2.667042595755E-01 4.922009367247E-01 5.453214369747E-01 -5.746075663669E-01 9.189875440173E-01 1.729564266072E+00 -1.320552667297E-01 9.392553249008E-01 -6.491154730641E-01 -5.146308383531E-01 -2.316034187037E+01 3.436555367518E+01 3.285768791435E+00 -1.766937741538E+01 4.560787374340E+00 -3.142460422180E+01 2.784377538793E+03
 3.623517024660E+01 5.988871108663E+01 -4.031219842089E-01 -6.832069664723E+01 7.104892970143E-01 -2.526731079127E+00 -1.781755093978E+00 -1.426667696219E+00 -1.123250785680E-01 -8.719079828258E-01 -1.307724410491E+00 -4.617440876827E-01 1.225512605358E+01 8.948803522722E+00 1.427679916363E-02 -4.393658083553E+02 -7.199730330078E+02 1.146348259136E+01 3.332427068206E-01 -7.066884749297E-01 -2.170195532902E-01 1.047907795379E-01 4.953792911469E-01 7.229834286646E-01 2.257654415182E+00 6.032960999614E-01 1.737267983917E-02 1.132982618212E+00 2.012278699063E+00 6.129640526708E-01 -2.939553811947E+01 5.169780679055E+01 -4.597942146387E-01 -5.471653034168E+00 -4.278556740824E+00 1.475572666261E+01 1.629213143317E+01 2.792987520430E+03
 8.538988096722E-02 5.992523992072E-01 5.751298830121E+00 2.153869129087E+00 -3.031538719821E+00 2.357162376688E+01 -8.646989781208E-01 -6.910633217664E-01 1.085422684819E-02 -5.803547543681E-01 1.427770752578E-01 8.140867626278E-01 3.641188977339E+00 2.834898002391E+00 -1.429354857552E+00 2.519503602038E+01 1.152965073480E+01 -8.346606732058E+01 3.573228225411E-01 -1.466017392853E-01 5.554605719644E+00 -9.301584607093E-01 -1.009716374633E+00 2.474963693765E+00 6.191760577607E-01 1.365999847013E-01 2.189170581702E-01 -1.168108782356E-01 -3.306450243431E-01 -1.076458897559E+00 -1.452455538401E+00 -8.191874784873E-01 1.790883238415E+01 2.034508433968E+00 -5.138158502797E+00 -5.804010692214E+00 -4.901395550373E+01 -2.464820911771E-01 1.998998417821E+02
 -5.971908633056E+00 1.324817932089E+01 -2.055578977434E+00 -3.236801861233E+01 -1.299283988906E+01 1.116421684471E+01 1.249113735461E+01 1.663785246287E+01 -7.447107876428E-02 1.024847167960E+01 5.140267048650E+00 1.308610849690E+00 3.471823108507E+01 3.614301496134E+00 -1.667039469690E+00 5.736456980811E+00 -1.786288178300E+01 -1.713655487892E-01 -1.528426560537E+00 -7.695842878681E-01 4.283518771218E-01 -3.614935009434E+00 -5.777247714563E+00 -2.118523435622E+00 -2.473047679221E+01 -1.717529986832E+01 8.142357141771E-01 -1.720641361852E+01 -7.803897443522E+00 -1.359956487811E+00 6.067851984698E+01 -4.035392059250E+01 8.354282227765E+00 1.878082550622E+02 5.049893378657E+01 3.550235404223E+01 4.454536128286E+01 7.867658712495E+01 5.538597200383E+00 2.613263386111E+03
 1.470410006801E+00 -2.158608388367E+00 -6.540452016288E-02 4.064519691373E+01 5.323238887658E+01 -8.913047382559E-01 2.031551854812E-01 -2.177247044816E+00 1.742792606159E-02 -1.662404105665E+00 1.990646993715E+00 3.813878877191E-01 -3.762783683247E+01 -1.161515056480E+01 1.038751368286E+00 -3.711495197555E+00 2.283269583730E+00 1.251496018687E-01 -8.157816904253E-01 6.460521490757E-01 -1.034746123239E-01 -1.278384307468E+00 -1.027092452103E+00 -3.412667638174E-01 3.294431550742E+00 1.604516198382E+00 -5.801679863832E-02 3.835846704615E+00 -5.482546358436E+00 -4.041825627659E-01 -1.987404489027E+01 -2.395393576846E+00 -3.170730021387E+00 -1.005949757641E+02 7.796391263973E+01 7.094174860550E+01 -3.098521007911E-01 6.401772188930E-02 9.106687045842E-01 -1.137474379947E+01 2.750468309129E+03
 4.520909649010E-01 -1.708147406886E+00 4.353238718846E-01 2.010547159673E-01 -6.194059486367E-01 8.568795445439E+00 -1.070116447385E+00 -5.636585213008E-01 6.062642804772E-01 -5.235167470958E-01 -5.367731767594E-01 5.364472135419E-01 4.743133965287E+00 4.832581967744E+00 5.196933892144E-01 -1.462722946546E+00 2.764758991545E+00 -8.858281988523E+00 7.944133425523E-02 -3.965511180342E-01 9.478941677482E-02 1.602094035024E-01 2.505984194730E-01 3.979188327430E+00 2.021285138103E+00 3.372617127915E-03 -6.157821717942E-01 9.806103860165E-01 1.394224491775E+00 -9.894494209660E-01 2.545559865373E+00 1.289702350600E+00 1.001101620917E+01 -1.842763284472E+01 -1.501971015313E+01 -8.970042651105E+00 3.917304503001E+00 -3.884524569027E+00 8.374888307591E+00 -6.186107644982E+01 -3.056300399670E+01 2.370687443602E+02
 -3.215284769143E+00 4.219563817759E+00 -2.904333522298E-01 -6.142684888987E+00 7.270577820551E+00 1.548645086954E+00 6.907972091790E+00 6.526641427428E+00 -4.780084149079E-01 3.439388839765E+00 4.709417246935E+00 5.941791493252E-02 -2.343446850583E+01 -1.910182988619E+01 3.669435805474E-02 5.208862570093E+00 -2.793336566052E+00 -4.754576373028E-01 -3.422518651648E-01 1.686587338796E+00 -1.515408600652E-01 -1.182783083994E+00 -3.732521452528E+00 -6.310523556833E-01 -1.146854392524E+01 -5.833473653671E+00 9.394315457175E-01 -6.254440410581E+00 -8.311120621935E+00 4.139850334151E-01 -1.259707729746E+03 4.386593214938E+02 -2.789642052166E+01 -5.076201407656E+02 1.649701267088E+01 -4.125989309519E+01 -1.060757981614E+00 8.040351387192E+00 1.935652012941E+00 -5.671427701136E+01 8.428824117384E+00 1.821823281022E+01 2.803118116243E+03
 -2.175648404479E+00 -1.682304739963E+00 -1.763249231816E+00 5.216579035985E+00 -7.168839093537E+00 1.105548466849E+01 8.499962392826E+00 1.363937430466E+00 5.424343009639E-01 -3.096504416190E-01 1.078722832617E+01 1.725259507264E+00 -1.503870386606E+02 -8.440908036097E+01 2.722745846639E+00 9.312751145927E+00 1.207437538044E+01 -1.061446970677E+00 -1.202602872728E+00 6.613684813476E+00 2.613676214563E-01 3.781049202168E-01 -3.264818562328E+00 -3.547989162839E+00 -5.041923715299E+00 4.268856709461E+00 3.856229842013E-01 3.153815028312E+00 -1.866809974240E+01 -2.128110237056E+00 3.599451542305E+02 -6.951217129986E+02 9.069740449617E+00 -8.215933118799E+01 -1.502494667533E+03 -8.150695101012E+01 -1.648680980799E+01 2.146916149378E+01 7.415982276473E+00 -5.223133916022E+00 -4.594402150474E+01 6.327940934399E+00 -6.004886989595E+01 2.668730624337E+03
 7.066832008315E-01 -2.991233989271E+00 -1.215379046660E+00 3.565997961263E+00 -2.194271704685E+00 2.799461794480E+00 -7.294650419160E-01 -1.334293325211E+00 -7.171787470084E-01 -2.523466085212E-02 1.068462755429E-01 -2.610600391003E-01 -9.217293279663E+00 -2.047628136069E-01 -3.523202985477E-01 -9.504581604347E-01 2.576500644465E+00 -2.925510847610E-01 -9.433247126717E-01 6.945499453236E-01 -1.185431524614E-01 1.433295278064E+00 6.675886900110E-02 -5.822963610775E-01 3.238292082231E+00 1.187977865888E+00 6.714747563351E-01 3.318912244988E+00 5.328931822936E-01 6.618808697096E-01 -4.942094033177E+01 7.665231871943E+00 -9.316392862295E+01 -2.528812780722E+01 5.175587389482E+00 -1.382621826625E+02 -1.308159401939E+00 -1.153969898841E+00 6.741555393274E+00 1.332596467580E+01 -2.329121498619E+01 -1.304364080056E+01 1.628771407667E+02 1.077778859014E+02 3.014943699940E+02
 -1.071001519798E+00 2.216578748545E+00 -5.155413838445E-02 -3.040451808335E+00 2.459411106073E+00 -5.265431036665E-01 5.479263332650E-01 2.692180715673E+00 -3.733420547460E-01 1.958572895511E+00 -6.450056620861E-01 -4.194190643760E-01 2.625410875829E+01 1.158836904228E+01 -8.487269136429E-01 -2.052878393399E+01 3.186861494376E+01 5.044267407958E-01 -2.526195256909E-01 -1.089208179118E+00 -4.802162112600E-02 -6.173697314347E-01 -1.511676420022E-01 2.751884303401E-01 -3.196121966574E+00 -3.342322402868E+00 4.155108317717E-01 -3.477462898135E+00 1.427591470353E+00 7.179912261607E-01 -1.203213385028E+03 -4.318845384589E+02 -2.025624535964E+01 5.103410764464E+01 7.876839569133E+00 1.082158308872E+01 -1.172599347437E+03 4.271493630812E+02 2.184040519091E+01 -5.100177341199E+02 -9.911228033474E+00 -4.561795961397E+00 -1.964777645738E+01 -6.643551044107E+00 6.648637330734E+00 2.751188905733E+03
 -2.630095185810E+00 4.728077634159E+00 -1.149446117188E+00 -5.850457321244E+00 5.152923506620E+00 6.193721047677E+00 3.170232256753E+00 5.854173483328E+00 -5.313579289395E-02 3.948531745899E+00 1.036133859371E+00 2.458480224783E-01 2.211476490978E+01 4.284250107078E+00 -1.134654157920E+00 -3.012825289050E+01 5.356954334868E+01 8.988419118138E-01 -5.120239627590E-01 -6.432057400364E-01 3.480274020075E-01 -1.081248087500E+00 -1.129964782111E+00 -8.541513599225E-01 -7.819696185842E+00 -5.516327053793E+00 2.961726426618E-01 -6.569787186869E+00 -3.880155335488E-01 -3.704345953244E-01 -4.233224002705E+02 -6.915547094896E+02 -5.800481016873E+00 8.261872986242E+01 3.291777593181E+00 -4.518192019652E+01 4.324674298632E+02 -7.179570621572E+02 -9.907982678649E+00 -6.823203755728E+01 -1.473871117783E+03 7.267320484034E+00 1.839842588877E+01 6.864885777902E+01 1.372227522642E+01 1.196411159514E+01 2.776995190194E+03
 -5.524846753971E-01 8.173056827977E-01 1.035637077074E+01 -1.578428988347E+00 3.739000642264E+00 -3.080986230457E+01 1.690213964093E-01 9.728377272905E-01 -2.958796044797E-01 1.282113199133E+00 -5.114552924553E-01 -1.411805201878E+00 2.318999212138E+00 4.916182971715E-01 1.834906543139E+00 1.746823179734E+00 -3.867334121722E+00 9.175237036629E+00 -2.791061896838E-01 -8.794065855184E-01 -1.502566284587E+00 9.450993108496E-01 1.887966502425E+00 3.312936048228E+00 -1.715254483751E-01 -2.932313808834E-01 -1.835630014597E-01 1.199749159226E-01 1.379771252391E+00 1.986096322593E+00 -8.373958965287E+00 -1.919117194338E+00 -9.649157328844E+01 1.989850677968E+00 7.693964589699E+00 1.201465526608E+00 1.489454926368E+01 -5.116757636442E+00 -9.196372068290E+01 -3.392574702310E+00 -2.015285934073E-01 -9.020076129669E+01 1.026781871097E+00 -4.756204877576E+00 1.125431131076E+01 -9.450872267666E+00 1.145518795530E+01 2.117724588945E+02
 3.450170322047E+00 -3.970210838609E+00 5.482693610130E+00 -9.176267236706E-01 -6.372086158764E+00 -2.361262072098E+01 -1.166617999047E+01 -8.784283811749E+00 -3.369149644308E-01 -4.888480211702E+00 -1.011192912676E+01 -2.519794698771E+00 6.524591703809E+01 3.499910269798E+01 6.646919403790E-01 -3.252977544987E+00 2.741173084721E+00 5.086825635556E-01 2.471974366797E+00 -3.678215781263E+00 -1.288249261397E+00 3.731879538723E+00 8.839841016284E+00 5.278020324378E+00 1.483863974649E+01 8.947453209728E+00 -9.793006169365E-01 5.683201209870E+00 1.791867945379E+01 3.095457698375E+00 3.702596980185E+01 -2.711961905908E+01 -2.398943073338E+01 -1.634715416532E+03 -6.625084529250E+02 -1.269646367278E+02 8.650636141529E-01 -1.308284667569E+01 -1.448320884137E+01 -1.184623184148E+03 4.714390508695E+02 3.030664325896E+01 1.524495198157E+02 1.276007924692E+02 -2.918970712726E+01 2.853345756364E+01 -2.937033857853E+00 1.524492216781E+01 3.223563043057E+03
 2.655126334542E+00 -5.706963254612E+00 1.965501721345E+00 -2.625869517624E-01 -9.742556765820E+00 -1.000915287824E+01 -1.625436429078E+01 -8.897076973132E+00 1.584214814066E-01 -2.645404256262E+00 -1.452300553427E+01 -2.302433455811E+00 1.264790758599E+02 6.224383602526E+01 -2.169110755466E+00 -1.766245018698E+00 3.923660567184E+00 -4.189137924376E-02 1.855476995168E+00 -4.886208171734E+00 -5.729134741194E-02 7.235258680313E+00 1.277050419501E+01 3.087169385829E+00 1.918716671853E+01 9.975633681948E+00 -9.398392000314E-01 6.081301522396E+00 3.200831688780E+01 2.202850782278E+00 6.126503791484E+01 -2.468531128268E+01 -7.088176207403E+00 -5.391428436728E+02 -7.243997382067E+02 -7.133569056026E+01 -1.125805658903E+00 -1.736836107205E+01 -7.789993867958E+00 4.651404087456E+02 -7.117340873267E+02 2.536024245325E+01 3.498677489954E+00 1.988467804819E+02 4.463227096571E+01 5.228843005262E+01 -4.335030608087E+00 9.090963096604E+00 -3.958209184311E+01 2.221233224028E+03
 -7.514469341951E+00 1.242274040385E+01 -5.380426186729E+00 -1.060996656961E+01 1.594896510493E+01 2.273500756269E+01 7.841856822356E+00 1.390286826664E+01 -1.447934310506E+00 9.462178389904E+00 4.342374196065E+00 -3.362558673586E-01 4.978327765421E+01 9.540913129312E+00 -4.520692214556E+00 6.858736477938E+00 -1.530691146807E+01 -7.178663250354E-01 -1.026678350881E+00 -1.124306713556E+00 9.982997855761E-01 -4.556649149432E+00 -6.003149927359E+00 -1.923398080300E+00 -2.042999528477E+01 -1.374184964230E+01 2.341390701893E+00 -1.698946916895E+01 -4.555406880460E+00 1.219311937902E+00 3.036580672882E+01 1.395398820535E+01 7.375076707529E+00 1.692354033113E+02 1.783805032502E+02 -4.328743939375E+01 -1.924030084885E+00 7.588361152108E+00 1.565859390427E+01 -7.881836195192E+01 8.559696745409E+01 -1.234925329886E+02 -4.698919752788E+01 1.869174014326E+01 2.147666767494E+01 -9.131345428962E+00 -3.198369676333E+01 -7.240076956111E-01 -1.467535792201E+02 -5.200197441227E+02 6.727015630552E+02
 2.161275005757E+00 -4.401582702009E+00 8.984088678762E-01 -1.225985524904E+03 4.436005031886E+02 1.799683633951E+01 -4.892701648093E+00 -6.454358053302E+00 -5.777900939141E-01 -3.960405038052E+00 -1.744044806827E+00 -1.108092431244E+00 -1.440166773616E+01 -2.966551932360E+00 3.588247849168E-01 3.851334128663E+01 5.900430019095E+00 -9.042549602860E-01 7.229894813057E-01 4.532328013562E-01 -2.976257275246E-01 -1.851922385400E+01 3.760778041311E+01 2.932031464406E+00 8.991739348939E+00 6.754828114195E+00 3.365919667431E-01 6.114414102462E+00 2.479263134428E+00 1.892636764894E+00 -6.843148908825E+00 -1.005658037874E+01 -4.908429521708E+00 -7.441373332357E+01 -2.616255694324E+00 -2.790074167480E+01 -2.267893885847E+00 -3.175416069714E+00 -3.401665162693E+00 -1.101653898080E+03 -4.045083149840E+02 2.325850702341E+01 2.087253166385E+01 1.217895176658E-01 -3.449646427734E+00 4.774771662755E+01 1.609879014714E+01 2.906408611637E+00 -3.784227515477E+01 -4.838866416472E+01 3.907835207536E+01 2.720073280545E+03
 -1.667812553229E-02 -1.054836595351E-01 -1.183146341483E+00 4.573456762679E+02 -7.397548034669E+02 -9.899673894615E+00 1.636376904835E+00 6.150807736472E-02 1.542853113590E-01 -3.597383502636E-01 1.531269185511E+00 5.507072562812E-01 -2.138539849534E+01 -1.152265770037E+01 7.141158873916E-02 6.835067129858E+01 -2.346794184770E-01 -2.141908790857E+00 -1.294005392656E-01 1.050049500707E+00 3.015273185907E-01 -3.325767127511E+01 5.841545683535E+01 4.816385637038E-01 -1.150092965701E+00 3.911578875818E-01 4.944452175453E-02 6.128997868810E-01 -3.017842919056E+00 -7.487576832410E-01 -8.448349306137E+00 3.009977365067E+00 4.180452506236E+00 -1.241670935842E+01 -2.213196059295E+00 9.905221316781E+00 -2.687498864092E+00 2.190468169961E+00 3.510115930638E+00 -3.898144550408E+02 -6.911637151012E+02 3.641295739442E+00 -9.127375764924E+00 -2.954667073427E+01 -5.367531201723E+00 -6.301668676482E+01 4.090630589363E+00 -1.238516380916E+00 5.214033191304E+01 8.207615342994E+01 1.601348588772E+00 -9.401752131158E+00 2.808095555144E+03
 -2.689683079171E-01 9.337047497610E-02 1.533854219968E+01 2.467388692136E+01 -1.323554388122E+01 -1.201909401779E+02 7.825015320081E-01 1.302096947545E+00 6.360468235417E-01 9.972657313786E-01 -1.921345362753E-01 3.134015652745E+00 -6.409740212515E+00 -5.628005829533E+00 4.031013742848E+00 -8.390211134724E-03 -2.886822035853E-01 9.234016719649E+00 -2.142315206064E-02 -3.366962009473E-01 -2.330396997766E+00 2.698008011977E+00 2.832643336186E+00 1.466113157162E+01 -4.999013427423E-01 1.240830804586E-01 -1.305519061804E+00 3.539477609214E-01 7.684910796905E-01 1.718373000557E+00 1.135158379977E+00 6.574411555816E+00 -2.063689809170E+01 -6.677553743019E+00 1.166751483310E+01 3.322967668384E+00 -3.834280988666E+00 6.306039520081E+00 -2.981722091438E+01 6.290271682646E+00 1.787088946590E+00 -8.279828813879E+01 -2.079323527186E+00 -1.376636872466E+01 -3.624811882755E+00 1.206825677534E+00 -7.713845068075E+00 3.991100703572E+01 3.248586550430E+01 1.382068822366E+01 -1.912619269433E+01 -5.420052633012E+01 5.315778231959E+01 2.463226198361E+02