#BIOSYM hessian 1
@Type: Hessian Update
@Units
 distance: 	A
 energy: 	Kcal/Mol
#header
@natom 67

#label
C1      C2      C3      C4      C5      C6      C7      C8      C9      C10     C11     C12     C13     C14     C15     C16     C17     C18     C19     C20     C21     C22     C23     H24     C25     C26     C27     C28     C29     C30     C31     C32     C33     C34     C35     C36     C37     C38     C39     C40     C41     C42     C43     C44     C45     C46     C47     C48     C49     H50     H51     O52     H53     H54     H55     H56     H57     H58     H59     H60     H61     H62     H63     H64     H65     H66     H67

#element
C  C  C  C  C  C  C  C  C  C  C  C  C  C  C  C  C  C  C  C  C  C  C  H  C  C  C  C  C  C  C  C  C  C  C  C  C  C  C  C  C  C  C  C  C  C  C  C  C  H  H  O  H  H  H  H  H  H  H  H  H  H  H  H  H  H  H 

#matrix
201
 2.812619940504E+03
 -4.058448659703E+00 2.488540899625E+03
 3.920673929136E+00 -1.088283923239E+01 1.825995716643E+02
 4.172551660037E+01 7.126616663733E+01 -3.516703742232E-01 2.956117803287E+03
 -1.491661613857E+00 2.254130875287E-01 2.296356200821E-01 -4.068217367628E+01 2.913337670814E+03
 -7.448630304782E-02 8.035764414586E-02 9.884551056896E+00 6.245800950915E+00 -1.446289500801E+01 1.981309281717E+02
 -2.408756738738E+01 4.033278962844E+01 -6.241653521673E-01 -2.186700336419E+00 3.106705573061E+00 8.940926978586E-02 2.741455900796E+03
 -3.244574765466E+01 6.416482609755E+01 -8.055088024603E-02 -8.505071925494E-01 -3.361167484275E+00 1.696012032900E-02 7.910361635004E+00 2.518701247325E+03
 5.683997942932E-02 -3.553615216150E-01 7.727054554109E+00 2.026753517644E-02 3.072771891820E-01 -1.805561587045E-01 5.147175189117E+00 -7.834565104565E+00 1.684892629989E+02
 4.027822787366E+01 -7.106235330011E+01 5.142408632049E-01 -1.831588849333E+01 3.527868568410E+01 -1.937745502970E-01 4.372377997094E+01 7.271982228731E+01 -1.889551490658E-01 2.866113477999E+03
 -2.048238038381E+00 1.194931983890E+00 3.402058014790E-01 -3.424632365718E+01 5.990571696411E+01 -3.398098400005E-01 7.825544034885E+00 -2.473722637037E-01 2.481565583101E-01 1.996783232060E+00 2.878669800841E+03
 3.625554220309E-02 -7.629324936494E-02 1.007197042039E+01 1.002085578089E-01 -2.219380128097E-01 9.816134593700E+00 3.408634221214E-02 8.392416068709E-02 1.018600487447E+01 5.975832031027E+00 -1.195114548487E+01 1.928339602199E+02
 8.705772722575E-02 -3.965682038052E+00 9.786835809630E-02 -1.125138144329E+00 -1.050001454583E+00 -9.550114778212E-02 4.352779474857E+01 -7.615229860547E+01 3.800816307432E-01 -2.153467928368E+01 3.523701919360E+01 -2.401101127694E-01 3.431788169363E+03
 -1.894622122012E+00 -7.874651379850E+00 6.133511674729E-01 -3.859552827878E+00 -1.794914845122E+00 -2.926974631925E-01 2.230026817429E-01 -1.257561456176E+01 1.401155997161E-01 -3.345748433673E+01 5.896851578451E+01 -4.583931196627E-01 2.845508320195E+02 3.184500014065E+03
 -4.817201214309E-01 5.707278407036E-02 -3.269413931529E-01 -2.080727030943E-01 -3.325283447820E-02 1.549162181707E-01 1.640933558020E-01 1.775807964764E-01 7.721670050137E+00 5.120937742393E-02 -5.327257129442E-01 7.780373166248E+00 7.217621197079E+00 -1.278392346185E+01 1.844216028258E+02
 -1.237718204656E+03 4.551910359995E+02 -3.831773976002E+00 -5.012893417256E+02 -1.178689169182E+01 -5.660341633245E-01 -1.036566856961E+00 1.032307654731E+00 -6.929923325578E-02 -4.216254353780E-01 1.820645544846E+00 3.393954231648E-02 1.804296081347E+00 4.297230342377E+00 5.154132581910E-02 2.986024422129E+03
 4.645621967377E+02 -7.576565043950E+02 3.842161754460E+00 -5.168765938152E+00 -1.513120017586E+03 7.493696820875E+00 -1.005888210321E+00 3.340783839231E+00 -1.927806322683E-01 1.804009573665E+00 1.200497570761E+00 -1.849183826350E-03 1.868604185489E-01 1.336478860193E+00 -1.488393763918E-02 4.082180784427E+01 2.920079367736E+03
 -3.735127876997E+00 3.858145104510E+00 -8.287682558565E+01 -7.597250914965E-01 7.371141861148E+00 -8.701446304091E+01 1.151955532458E-01 1.878714069484E-02 4.750674534117E+00 -3.007831718506E-02 -1.456879332745E-01 -9.692027044374E+00 -2.386400399191E-02 -1.945134593963E-01 -2.280983645460E-02 3.439511207019E+00 -1.401456168337E+01 1.987748973162E+02
 -1.263508977389E+03 -4.409473954332E+02 1.800900635942E-01 -1.535998333992E-01 -1.251628744887E+00 8.099937890512E-02 -1.246246638968E+03 4.468053965176E+02 -3.715639265944E+00 -4.933119555483E+02 -1.051642448534E+01 -6.752376792428E-01 2.864811027489E+00 4.630886020385E+00 3.034802829752E-01 -1.940066766170E+01 -3.394046302368E+01 9.557686236122E-02 2.891216560387E+03
 -4.574321378838E+02 -7.230074522805E+02 2.015073456706E+00 -9.953725806047E-01 3.193294481875E-02 -8.215652784828E-02 4.592453377582E+02 -7.422697270688E+02 3.206637006479E+00 -6.405050771614E+00 -1.513707879239E+03 6.214897489780E+00 -9.985076450875E-01 -3.971892050727E+00 -2.226323621002E-02 3.642127654606E+01 6.203303295491E+01 -1.163136738698E-01 5.250221201378E+00 2.855282878467E+03
 2.256279128607E-01 2.152262062059E+00 -8.130107538928E+01 3.738209226169E-02 -3.237563187540E-02 -9.758257894128E+00 -3.738996829040E+00 3.254277408491E+00 -7.949460283558E+01 -7.785849893287E-01 6.149699346825E+00 -8.416674832526E+01 -1.051459591253E-02 -1.222488939909E-01 -9.756813154915E+00 -2.217151963109E-01 -3.073950720118E-01 9.377077195064E+00 4.201795449119E+00 -1.136882948970E+01 1.904407727082E+02
 1.128995283900E+00 -4.981667161046E-01 -2.436394853512E-02 -1.259860147741E+03 -4.536571720947E+02 -3.609170768928E-01 -2.531393751195E-01 6.227416574430E-01 -2.799448588119E-03 -1.240442727957E+03 4.684662515018E+02 -4.697101743959E+00 5.720575723303E-01 1.714263575154E+00 -2.105965857425E-01 3.869867887490E+01 -3.351527503266E-03 9.010639749989E-02 4.225507385914E+01 -9.409381853021E-02 1.114815445992E-01 2.807648668109E+03
 1.030287610687E+00 3.929006411477E+00 4.422624890624E-02 -4.415844341859E+02 -7.298820980594E+02 2.338793506774E+00 1.444720968924E+00 -1.060688652105E+00 2.377114451283E-01 4.536031623166E+02 -7.475147054707E+02 4.118232574563E+00 3.489784263180E+00 7.081742155974E+00 -1.275421083428E-01 -7.266849100147E+01 2.586985645894E+00 -1.445548847784E-01 6.901647824704E+01 6.349926710955E-01 2.295864277058E-01 5.756683757087E-01 2.477137337335E+03
 3.260725558842E-02 -2.232991326000E-01 -9.651066905529E+00 -2.712044045499E-01 2.459607752179E+00 -8.162163791469E+01 1.177975608768E-01 5.319644245783E-03 4.941027244501E+00 -4.735257689020E+00 4.176196558804E+00 -8.055133479920E+01 -1.072713796845E-01 -1.175485413985E-01 4.710062647031E+00 4.299134266152E-01 -1.867130568693E-02 1.016877418042E+01 -1.720066469914E-01 1.146413032199E-01 1.075361093690E+01 5.648647820266E+00 -1.168179161783E+01 1.845773562116E+02
 2.581823087680E+00 -1.865580168113E+01 4.924557259226E-03 3.455538561992E+00 8.842211101753E+00 -2.193137748884E-01 -1.205348675243E+03 -4.412891923869E+02 -2.057605694147E+00 1.752869783337E+00 -1.634973306323E+00 1.735655307316E-01 -5.971103748924E+02 2.639667145400E+01 -2.337694766837E+00 -9.812253439023E-01 -1.015161764314E+01 3.878197733753E-02 -1.652535232246E+01 -2.754755599766E+01 -1.886416440669E-02 2.764020875612E-01 1.030173782066E+01 -4.363170348818E-01 2.779641710775E+03
 6.221375944274E+00 2.275099567533E-01 -1.321197624673E+00 5.303936680371E+00 1.159501238591E+01 2.204120137454E-01 -4.502836926356E+02 -7.518352992622E+02 1.149923362414E-01 -1.695795663690E+00 4.313488987218E+00 3.441841691278E-01 -1.640854519902E+01 -1.449223910135E+03 4.591287303034E+00 -6.870154772157E+00 -1.277402307771E+01 4.838827840782E-01 3.673570498983E+01 6.636873801406E+01 1.548954838446E-01 -1.760715429508E+00 1.318762912597E+00 -6.786580069305E-02 1.886611348536E+01 2.722820956831E+03
 8.580132172683E-02 -9.231234642085E-02 5.156572457134E+00 7.067502586221E-02 2.710809163782E-02 -1.096908635503E-01 -1.025071705390E+00 1.378122779723E+00 -6.709580332982E+01 8.021855404726E-02 1.088385040032E-01 -9.142832878776E+00 -1.605396056167E+00 6.928801705986E+00 -8.004282804251E+01 6.359634748603E-03 4.532554506139E-03 5.688429419814E-02 -2.448431602253E-01 -2.349251490280E-01 6.294082720458E+00 4.628602177626E-02 1.153499749749E-01 1.396288282815E-01 6.916437729639E+00 -1.031880640024E+01 1.478692993523E+02
 -9.553928964555E-01 3.604841515369E+00 -3.863112832982E-01 -2.266812927619E+00 9.199397530121E-01 5.117816605113E-02 -1.780370472597E+00 -4.282610555408E+00 9.598522401271E-02 -1.239995032757E+03 -4.609209888220E+02 -5.843840383148E-01 -1.221343586132E+03 4.539898603333E+02 -4.252214639381E+00 -7.632288078928E-02 -1.089063338772E+00 1.040623138115E-01 4.120589634897E+01 -6.331509551836E+00 1.899368373166E-01 -2.640018842547E+01 -3.424465044962E+01 1.924725215302E-01 5.547939271711E+01 2.411630973141E+00 -1.136991351659E-01 2.788792848576E+03
 8.108056479773E-01 5.941614489924E+00 -1.587475207270E-01 -1.788558492169E-01 -5.267523846402E-03 6.139672088930E-02 -3.975911282608E+00 -6.593808837350E+00 3.241822579163E-01 -4.508881053798E+02 -7.407072626187E+02 1.877726437208E+00 4.695261208470E+02 -7.950896036976E+02 4.693303391944E+00 -1.648322500132E+00 1.247085449417E+00 3.117302974868E-02 -7.479762412043E+01 -9.658407142171E-01 -6.513328775283E-02 3.430977087135E+01 5.786690709718E+01 4.537840937401E-02 9.465734546680E+01 4.020622723154E+00 -2.045223138847E-01 -1.716537378649E+00 2.531283845206E+03
 1.747274171709E-01 1.003263221584E-01 5.022501913751E+00 7.264665263414E-02 6.136858308219E-03 4.832163295389E+00 -9.321614983971E-02 -1.296627071623E-01 -1.037645198916E+01 -4.752370033222E-01 1.956736657138E+00 -8.254036227339E+01 -4.511472090032E+00 4.515122200289E+00 -8.378014722996E+01 -3.066220597970E-02 2.540725997139E-02 1.878237641019E-03 2.130282480713E-01 5.107767143004E-02 1.083948311456E+01 -2.755484562615E-01 -3.729096535519E-01 5.898171291290E+00 2.831159624002E-01 2.872039754871E-01 9.602204600065E+00 5.585093286884E+00 -1.065386616154E+01 1.865393684233E+02
 -1.249343281094E+00 3.337570478728E-01 2.798054630346E-01 3.871364544074E+00 -1.722200594241E+00 4.358366437625E-02 7.298096580121E+00 1.323922465802E+00 9.585310964139E-02 -4.407045585316E+00 -4.450123465322E+00 5.255283479445E-04 1.464718496018E+00 6.165338509760E+00 -1.042730303766E-01 -6.315578418322E-02 1.297523312540E+00 -1.101401456193E-02 -2.145554310315E+00 3.808908310759E+00 -9.631017432925E-03 -3.052926968567E-01 -2.528704033100E+00 -2.935434324857E-03 -5.015463044971E+00 -5.418750464831E+00 5.026074102820E-02 5.747591979316E+00 2.231622531926E+00 -1.959598694525E-03 2.798422097103E+03
 -1.937898719255E-01 -3.316295823391E+00 1.408632555176E-02 -2.531905504002E-01 7.609869218793E-01 1.071443646036E-02 1.019281138795E-01 -5.818049099305E-01 -1.889888357960E-01 5.554482546757E-01 4.138595403849E-01 1.219332385972E-02 -2.614502127706E+00 -5.580078608977E+00 1.778098836928E-01 8.758813930156E-01 -3.846604103347E-01 5.952116298885E-02 1.024857621703E+00 1.829077523612E-02 -2.836463953821E-02 2.434491950983E-01 2.778553679214E+00 -1.137736225639E-01 -7.601724449042E+00 2.392543715370E+00 -1.256309035160E-01 5.762742195303E-01 3.282512604496E+00 -5.058632825556E-03 -7.573810231780E-03 2.486720053308E+03
 -2.788352089935E-02 -1.184563441997E-01 3.843689633633E-01 5.870754824644E-02 9.361975415836E-02 -4.997382798708E-02 1.580193057075E-01 -6.665597110790E-02 2.592256983279E-01 1.034261140071E-02 1.938832090045E-02 -4.998158938760E-02 -6.223030440172E-02 6.667771706229E-02 2.000249387735E-02 -1.571075616245E-02 -4.460545520122E-02 5.101914526972E+00 -6.346002974252E-03 5.693308715861E-03 -6.362350767578E-03 1.682388352822E-02 1.320082176223E-01 3.293072027688E-02 -4.248046341880E-01 -3.890966958106E-01 6.152683332867E-02 1.328930215667E-01 2.335829606343E-01 -1.873078186489E-02 3.314804454512E+00 -1.526895246392E+01 1.784211504098E+02
 3.031081885311E+00 2.317896438250E+01 -1.356000678397E+00 -1.678663360851E+01 5.256655679900E+00 -2.994361815638E-01 -4.724897584228E+01 -1.214873233501E+01 -1.652232931578E-01 1.753239861640E+01 2.074634611495E+01 -1.087557902708E-01 1.098932826525E+01 -1.951394154096E+00 -9.280085044484E-01 -3.541887356844E+00 -3.782274418136E+00 2.349607557089E-01 3.757505433678E+00 -2.223961215345E+01 3.975497268874E-01 2.131490593215E+00 -5.778717468670E+00 3.622820428744E-01 8.969654848589E+01 3.593601089012E+01 4.274930034646E-01 -3.724867421896E+01 -3.460240291053E+01 2.728676233027E-01 7.421769119265E+01 8.457159886115E+01 -1.019992593296E-01 3.020452843115E+03
 -4.251461509651E+00 -1.924561928277E+00 -2.298242125323E-01 -1.654961027199E+01 -7.535097421884E+00 -5.273963582782E-01 -2.857865188218E+01 -4.951022519121E+01 4.500272119048E-01 1.401199536450E+01 7.690905460532E+00 -3.341879899007E-01 -3.334809409508E+01 -1.009208490921E+02 -5.069526893819E-01 7.265864515049E+00 7.395668615348E+00 -1.001017681900E-01 8.371589170172E+00 -1.691155956466E+01 1.900766729808E-01 2.373030889071E+00 1.067845267990E+01 5.607953908917E-02 1.053836757991E+02 2.068973546973E+02 -1.599626948732E-01 -1.689621306394E+01 -4.684568369794E+00 3.745141802980E-01 3.253044923216E+01 -6.300424005791E+00 4.810718346533E-01 -2.519966850620E+02 2.850071128059E+03
 -1.745213241701E-02 1.969768191372E-01 -2.279893374891E-01 1.087926229463E-01 7.730657016956E-02 1.662603856415E-02 3.362048187155E-02 5.145026498448E-01 -1.425040545075E-01 -7.724887661589E-02 5.874798691038E-03 3.459280096678E-02 4.215313401472E-01 1.074145977457E+00 4.613413286278E-02 -9.770460428933E-02 -1.016066017686E-01 4.032702177818E-03 -9.023695413134E-02 5.564583492679E-02 -1.366600086201E-02 -6.865443506860E-02 -2.117862041382E-01 -3.514640397945E-02 -6.582437796305E-01 -2.158761831663E+00 -2.629436202435E-02 -6.146635304805E-02 -2.251854313859E-01 -1.762541422590E-02 -2.173034502061E-01 2.326123684239E-01 9.204704241336E+00 7.449874122275E+00 -2.156046460035E+01 1.836918554641E+02
 -2.688422342525E+01 -3.513280507334E+01 2.787053563682E-01 4.293950782397E+01 -2.333515093527E-01 -1.443851932530E-02 -9.279183761994E-01 2.621826605944E-01 -5.379002852798E-02 -2.247499860303E-01 -9.988059627103E-01 -2.595805885446E-02 -3.808428289127E-01 -1.541803617651E+00 -2.550219189414E-01 -1.356770402201E+03 -5.005074528590E+02 9.906483635176E-01 -4.042473152509E-01 -2.257696416322E-01 4.823965743093E-02 3.546636634684E-02 2.025378886882E-01 -3.917442292226E-02 4.993957744382E-01 3.904228663455E+00 4.798747694344E-02 -4.901763334015E-01 9.797515617157E-01 8.612052530535E-02 -2.494700110183E+01 3.568023936415E+01 -2.807641602057E-01 7.028647547768E+00 -2.112773530147E-01 -4.804166410729E-02 2.903920064755E+03
 3.747459616903E+01 6.119689898424E+01 -1.190647526251E-01 -7.626317559242E+01 1.060840477338E+00 -1.031871452373E-01 3.106858089315E+00 -1.853815038232E+00 -1.363340363724E-01 -4.241213894533E-01 -8.274851755648E-01 -2.953768836702E-02 -5.115193202911E+00 -1.117629712524E+01 6.139360401334E-02 -4.827513254513E+02 -7.781211939661E+02 3.052624045242E+00 1.642717878666E+00 6.086029675135E-01 -1.505784004876E-02 2.824482226062E-01 2.843827804327E+00 -1.205607870888E-01 -1.035157031347E+01 1.127801591351E+01 -1.215525679868E-01 3.162929275128E+00 5.589311961871E+00 6.569279326396E-02 -3.391691168384E+01 5.689606897537E+01 -5.133581467991E-01 2.282559194300E+01 -1.202860815513E+01 3.228987649001E-01 3.468975951984E+01 2.524769696991E+03
 -1.572756906025E-01 -2.282752856776E-01 8.163670385805E+00 5.298484289700E-01 2.378212152965E-01 1.149899375912E+01 -3.106959544851E-01 7.338237195571E-02 9.370809784112E-01 1.185716161881E-01 1.885596591003E-01 -2.392636440667E-01 1.307944509644E-01 6.692043728227E-01 -2.678031132674E-01 7.742248595213E-01 2.858651730991E+00 -8.644533748853E+01 -7.758355569414E-02 -8.791723795826E-02 5.211838229912E+00 1.603984517309E-02 1.910479033174E-01 5.235728996744E+00 2.447436401095E-02 -1.205707484226E+00 2.764016945764E-01 -2.535654468692E-01 -3.487558821203E-02 7.906611732797E-02 2.674247243586E-01 -3.840613143969E-01 5.821621798092E+00 -4.264217288234E-01 5.498919084980E-01 -1.494466988682E-01 3.892149869436E+00 -1.299136252202E+01 1.863757061288E+02
 5.476690634426E-01 -4.721579483435E+00 -1.988964096819E-01 -2.384722050021E+01 -3.377250958384E+01 -1.473445852647E-02 -4.974447055499E-01 3.913075300274E+00 -4.179716356830E-01 3.896771297506E+00 3.886790546659E+00 2.598520252203E-02 -3.153129558068E+00 -6.674673170864E+00 -5.484659126483E-01 -1.155890106214E+00 -2.835682290260E+00 5.614350777839E-02 3.409661324580E+00 -1.891737633637E+00 5.428152772220E-02 -5.146078451211E-01 5.011500411144E+00 -1.419269904643E-01 -1.748979199487E+01 -6.313271950872E+00 1.005618772209E-01 -3.192429150767E-01 4.170972377762E+00 2.886048152521E-01 4.891610413074E+01 -7.345067057591E+01 4.264890044178E-01 -2.849979285406E+01 2.567337326501E+01 -2.007170761925E-01 4.372738519136E+01 6.856309411297E+01 -4.503890670937E-01 2.917787896976E+03
 1.577317639812E-01 -1.456448945306E+00 3.076768778940E-01 4.148580547081E+01 6.351701788782E+01 -1.955759120539E-01 7.816621743443E+00 8.741411168360E-01 1.590806266142E-01 -3.846322999047E+00 -4.317025000875E+00 -1.586824819437E-02 -1.525972332068E-01 2.751324095343E+00 3.544420532104E-02 1.623688119443E+00 6.861967441402E-01 -8.965213983435E-02 -1.529947706949E+00 3.620099445604E+00 -4.742695040899E-02 1.037895809958E-01 -1.643677698504E+00 2.410563717481E-02 -7.657378227929E+00 -3.494466943875E+00 -8.131769422708E-03 5.592426658290E+00 3.351292659106E+00 -2.731692289307E-02 -7.233262491933E+00 -1.403398428256E+00 8.639336107470E-02 -7.253346494233E-01 8.851813542986E+01 -4.518867799544E-01 -1.689494120363E+00 -2.161064739891E+00 1.867735764446E-01 3.211921790898E+01 2.855777740780E+03
 -1.093162843080E-02 4.152463719885E-02 -1.143832666206E-01 -2.435680985699E-01 -3.127642593952E-01 9.662289304276E+00 -1.128313327798E-01 -2.631820324040E-02 -5.052479402466E-02 5.638194185987E-02 8.305837997938E-02 6.451522554519E-03 4.022521829658E-02 8.679918634779E-02 2.230181669367E-02 2.679992018062E-02 -1.382109060707E-01 -1.024776856804E+01 -1.676982765785E-02 -7.296822591676E-02 -1.901177636629E-02 -3.444277625845E-02 6.259077294567E-02 5.057960030463E+00 1.057632531065E-01 -1.313205784946E-01 -8.996081573170E-03 -9.484989985354E-02 -3.384804773825E-02 8.353993825092E-03 6.595863612625E-02 -1.818827569390E-01 1.048859084188E+01 2.456967868862E-01 -4.382161077808E-01 5.426524075563E+00 -4.150703800916E-02 1.968338129841E-01 1.151538346112E+01 6.740005311267E+00 -1.689191240562E+01 2.035372512379E+02
 4.354252972486E-01 3.700302143236E-01 -1.723984100310E-04 1.797669207406E+00 1.682757130671E+00 9.584830313050E-02 2.542725517968E+00 3.345712208040E+00 4.008224869846E-02 -1.442284943244E+00 -1.730962990389E-01 3.972451620124E-02 3.506496742331E+00 1.262462354928E+01 1.651988127645E-01 -1.975677851770E-01 -1.042982040596E+00 1.496630348705E-02 -1.296874278181E+00 1.193009875713E+00 -1.896520996216E-02 1.666739021089E-01 -5.507809290635E-01 3.527740536089E-02 -8.536862542574E+00 -2.198758367929E+01 -1.183551228417E-02 1.313385181573E+00 9.913709462986E-01 -1.228031946402E-01 -1.246461748214E+03 4.517168472371E+02 -4.375506714164E+00 -5.362697694840E+02 -4.465325365097E+01 -4.960692617031E-01 -9.884688822287E-01 8.831344811202E-01 -1.199054982029E-01 3.594602695098E-01 -4.276410901909E+00 -1.286510125197E-01 2.794383291360E+03
 -1.132919676835E+00 -4.529132008138E+00 6.753889008789E-01 6.006758716720E+00 -2.787442835224E+00 1.254510179866E-01 1.672783626138E+01 8.895971392164E+00 1.826832352974E-01 -8.186548648424E+00 -8.811435064220E+00 1.826955524932E-02 1.746312043113E+00 1.045316112421E+01 4.589695592612E-01 8.360074307699E-01 3.059732441673E+00 -1.438741753857E-01 -2.382605119793E+00 9.318148522782E+00 -1.889104470038E-01 -1.048397848851E+00 -3.127111029533E+00 -1.091709461976E-01 -3.146523074774E+01 -2.744450468879E+01 -1.142191935081E-01 1.292862231345E+01 6.886482696788E+00 -1.165243770881E-01 4.565385067794E+02 -7.368796009072E+02 4.908335057510E+00 5.397878169107E+01 -1.435812267483E+03 1.057421212007E+01 -1.050401632912E+00 -4.610326616172E+00 2.850860237241E-01 3.411348596707E+00 -1.117176842470E+01 9.596873940016E-02 -3.137229527348E+01 2.797126746352E+03
 8.575300555274E-02 -9.146267381933E-02 2.003322565065E-01 -1.113411433231E-02 7.836483214935E-02 -2.736883708102E-02 -5.700153601064E-02 -7.978030950883E-02 1.099187923034E-01 7.440869618341E-02 8.689321924857E-02 -2.871177822288E-02 -6.459160040208E-02 -1.078078082320E-01 -5.448120821228E-02 5.085936197149E-03 -6.732547257245E-02 -1.467006745551E-02 4.259653825703E-02 -4.286539812216E-02 3.261192510466E-03 4.907268629355E-02 1.535466148434E-01 1.894002751135E-02 -1.019663464739E-02 2.202972901575E-01 3.258746792756E-02 -9.627073552951E-03 1.382021328513E-01 2.230794863925E-02 -4.433740370580E+00 4.963452959049E+00 -8.259827214393E+01 -7.697011814735E-01 1.097536437891E+01 -7.797970205050E+01 4.399894236776E-02 -5.136529831775E-02 5.014991298930E+00 -9.484253401224E-02 -6.404967299240E-02 -9.460490903069E+00 2.853951177065E+00 -1.960744984266E+01 1.850672972958E+02
 4.803032952232E-01 -3.367182707183E-01 -2.183974528680E-01 -1.569940206745E+00 1.546027411636E+00 -1.966749090842E-02 -3.532255066574E+00 -5.411260188716E-01 -1.589974078205E-01 2.057413022110E+00 2.231185719036E+00 6.017743700118E-03 -7.756651848539E-01 -3.046212727675E+00 -1.030629625509E-01 -2.163757037318E+01 3.724197541941E+01 -2.491780872286E-01 1.466424364019E+00 -1.778688080837E+00 2.555568258678E-02 4.665124760432E-01 1.620235731615E+00 -2.347292255281E-02 1.044595714353E+00 2.467752490984E+00 3.548246271447E-03 -2.307263491610E+00 -5.829588408679E-01 5.470622885229E-02 -1.252974264961E+03 -4.469581284614E+02 1.209412267143E+00 -1.512185507008E+01 -1.425548808469E+01 2.055848235042E-01 -1.234264827949E+03 4.546583974260E+02 -4.373882614953E+00 -4.971187553528E+02 -1.623462916545E+00 -5.699628416335E-01 -1.862229612914E+01 -2.795540315697E+01 1.151269904763E-01 2.876820642304E+03
 1.229725648251E+00 3.805720622296E-01 -2.733993850359E-01 -1.442293700852E+00 1.091347490637E+00 -2.411094228574E-02 -7.405674798605E+00 2.522886445460E+00 -2.153626376693E-01 4.717419407863E+00 5.459226198697E+00 5.726116016815E-02 1.131296423702E+00 1.546636745512E+00 2.804585122642E-02 -3.955452214773E+01 6.172797422265E+01 -3.083124573154E-01 1.741938723895E+00 -3.463019402869E+00 4.493600251521E-02 -3.381162099710E-01 3.195180103506E+00 -1.822392295325E-03 -1.233625355493E+00 -1.093046632140E+01 5.703231551575E-03 -5.486874052542E+00 -2.211179705406E+00 7.332437125118E-03 -4.545278537373E+02 -7.305078613320E+02 3.488419677920E+00 -3.310822563693E+01 -7.388365027725E+00 -6.786120992354E-02 4.747047124342E+02 -7.521559389771E+02 4.471001849072E+00 -8.329160122134E+00 -1.509167189456E+03 9.046156533673E+00 3.762013731077E+01 7.590680277464E+01 -3.933871829305E-01 -9.254282666851E+00 2.866463965548E+03
 3.670037144641E-03 -8.697280928695E-02 5.090856603135E+00 1.629980895073E-02 -8.356530077749E-02 -1.017480585622E+01 1.938777312362E-01 -6.118002359470E-02 -3.435939798203E-02 -2.794711727512E-02 -7.029193757592E-02 1.342120250307E-02 -9.005567509305E-02 -2.196781276358E-01 1.473659472950E-02 1.638222225606E-01 -2.264126963574E-01 1.037107202808E+01 1.388442046142E-02 5.335849084720E-02 -1.733523654920E-03 2.490374631739E-02 5.197225527073E-02 -7.647422763080E-04 -2.225614393270E-01 3.065710316160E-01 2.397417836930E-02 1.588935598940E-01 1.636088762944E-01 -1.386653578687E-02 1.340408639229E+00 3.480738075234E+00 -8.048467173303E+01 4.301385968195E-01 -9.733096054228E-02 -1.062148163681E+01 -4.484204120701E+00 4.517336427069E+00 -8.256999029278E+01 -8.919463028736E-01 8.938454836155E+00 -8.715192165764E+01 -2.757585745540E-01 -6.014854662420E-01 1.033339670611E+01 3.740758874178E+00 -1.669790205401E+01 1.949396575142E+02
 -1.710846255270E+00 -3.834720997139E+00 8.058808483776E-01 6.850883867162E+00 -3.140517712409E+00 2.084176621795E-01 1.521384373033E+01 2.273239742854E+00 4.255293420106E-01 -8.270692933211E+00 -8.561057057925E+00 -1.737034709416E-03 3.683993766260E-01 8.210602743662E+00 8.995352942164E-01 1.316858284786E+00 3.568576994742E+00 -1.461993525488E-01 -3.696254103246E+00 7.846390780360E+00 -2.162199404117E-01 -4.773318961669E-01 -2.133913090628E+00 -6.111175582901E-02 -2.101236180111E+01 -1.470894820536E+01 -2.529373356715E-01 1.190624849226E+01 7.637721978508E+00 -3.161867421003E-01 -1.685433486804E+01 -3.549386308329E+00 -1.324098371606E-01 -1.212149801679E+03 -2.582088995486E+02 -1.953545359318E+00 -3.058549603155E+00 -5.359715961268E+00 2.376659439005E-01 -1.304981271828E+03 3.608576115204E+02 -5.763783456830E+00 3.544102118059E+01 -3.139352483312E+01 6.005918283709E-01 4.759913085744E+01 1.237275002336E+01 -1.899932152397E-02 3.044847450425E+03
 -2.107324798289E+00 -2.190856340022E+01 6.934613022311E-01 8.128352413334E+00 -2.729684919918E+00 1.719693817553E-02 3.107431069289E+01 9.719940873998E+00 -3.642249819131E-01 -8.629739748833E+00 -1.233952393864E+01 6.757816871938E-02 -1.401546333670E+01 -1.686233045756E+01 2.303331619146E-02 3.125670525115E+00 6.131443102720E-01 -1.256050581166E-01 2.111436844617E+00 1.429029658553E+01 -2.211289666787E-01 -1.420653860464E+00 8.930441843578E+00 -4.115211109705E-01 -7.430071407615E+01 -1.145299847502E+01 -2.292388654927E-01 2.565080141873E+01 2.794768606194E+01 1.660108394706E-01 -1.863230994209E+01 -8.577737822150E+00 -4.874843063298E-01 -3.044857299928E+02 -7.722865047279E+02 5.305994024815E+00 -3.597318507489E+00 -2.014535520485E+01 3.402229948557E-01 4.133133774247E+02 -7.709145140320E+02 5.830300719558E+00 -8.155820060230E+01 -4.643171338495E+01 -2.632226665805E-01 7.835174005118E+01 1.582447217895E+01 -1.279764058369E-01 -9.485855796508E+01 3.038159016482E+03
 -8.357066921417E-02 3.893403383606E-01 5.629761161568E-02 -1.184365450343E-01 -2.507410811618E-01 5.198521929988E+00 -2.665245460929E-01 6.330022639547E-02 3.656906053252E-02 -4.318345621165E-02 -8.909258145964E-02 -1.986683614519E-02 1.798946191687E-01 1.516631368876E-01 -1.759189259076E-02 -1.044222534092E-01 2.203098609074E-01 -6.799082068008E-03 -7.577879976062E-02 -3.674069646447E-02 3.568956624354E-04 -5.840263142636E-02 -3.665191412206E-01 -1.880694683759E-03 9.807762851692E-01 2.282664012107E-01 3.495688855836E-03 -2.637484782016E-01 -5.677641662559E-01 7.972950361159E-03 4.030595973758E-02 7.747778789454E-01 -1.065168744544E+01 -1.432545569062E+00 4.714874967184E+00 -8.511995602827E+01 1.559458877430E-01 3.936023205656E-01 4.895318389959E+00 -5.258378207156E+00 5.495515788544E+00 -8.504338782585E+01 1.162757749132E+00 2.808455230865E-01 6.263173363636E+00 -9.075701802091E-01 -2.005104877084E-01 5.656296428822E+00 8.091223429818E+00 -2.098719016233E+01 1.972140356536E+02
 -1.014831700615E+00 1.463811188370E+00 2.770637162059E-01 -1.303547760683E+03 5.019889337223E+02 -5.329404282081E+00 -2.318524052929E-01 -3.397480882468E+00 2.565584832979E-01 -2.957731442545E+00 -3.049183577750E+00 -8.828980568205E-02 -2.278886959268E-02 -2.665565100026E+00 2.250795427795E-01 4.547862516055E+01 1.893214399760E+00 4.229524938050E-02 -1.242642548038E+00 1.760234300701E+00 -4.565732061913E-02 -2.782438697493E+01 3.411938764027E+01 -2.636277916740E-01 1.173877354824E+01 1.507719519239E+01 -7.076648179209E-02 -1.094293549841E+00 -2.239078104200E+00 -1.029513044174E-01 -3.867791032967E+00 1.139533321243E+00 1.127563138329E-03 8.574813013125E+00 -6.376912078559E+00 8.818807892150E-02 -3.075097997925E-01 2.825391558041E-01 1.270453852861E-01 -1.253608564268E+03 -4.635567104135E+02 -2.078212448763E-01 5.945947519611E-01 -3.754080292246E+00 3.125544686166E-02 4.119168939678E+01 5.229427327185E+00 4.131980001624E-02 -2.456696973175E+01 -3.708632000503E+01 1.581811930105E-01 2.886792900334E+03
 1.695172546121E-01 7.464663321507E+00 -9.322400579785E-02 4.895389937594E+02 -7.983580203549E+02 4.981629916068E+00 -6.724351229711E+00 -6.105522567995E+00 3.141927471984E-01 1.351937756683E-01 9.242190005138E-01 -1.073552820043E-02 3.483762597109E+00 3.798378323091E+00 -5.803145478567E-02 7.359897569830E+01 2.122856409446E+00 2.305013482277E-01 -1.616693300273E+00 -2.349498879923E+00 6.008056852458E-02 -3.346527818271E+01 6.118432927452E+01 -2.159938008623E-01 3.193221963431E+01 1.549261492543E+01 1.096973758045E-01 -4.551601743489E+00 -8.736922955456E+00 -8.481764252799E-02 2.934445562059E+00 3.594971589124E+00 2.630084411521E-01 -4.395432989007E+01 -2.263919794382E+01 1.892138482148E-02 6.626593322493E-01 4.732504130833E+00 -3.440112253668E-03 -4.346304431110E+02 -7.249188942704E+02 2.729312902359E+00 1.962118245150E+00 1.101273955850E+01 8.802467726468E-02 -7.214234271834E+01 3.918066904902E-01 8.110512043282E-03 4.409348919541E+01 9.738036161185E+01 -7.580596763663E-01 -1.646168013907E+01 2.539891402417E+03
 1.973978227492E-01 -6.332629109678E-02 5.433914333788E+00 -5.431994622307E+00 4.940061343640E+00 -8.538984288518E+01 8.435936007586E-03 5.715951758146E-02 5.034359251866E-02 -3.908162833300E-02 7.869195262663E-03 5.109886368390E+00 4.691084215827E-02 8.576383509672E-02 -2.137906204221E-01 -2.814744874766E-01 1.421564545404E-01 1.203272200558E+01 -1.253119482392E-02 7.830552626059E-02 3.558041821929E-02 2.502933971442E-01 -1.279629883418E-01 6.244834446744E+00 -2.421363519465E-03 2.578403584761E-01 1.053988553711E-01 7.340007418173E-02 1.536696605479E-01 5.933575180896E-02 -2.853800646220E-02 -7.997313766681E-02 4.812237469645E+00 9.599312816913E-01 7.600355448707E-01 5.519306873529E+00 2.147456649683E-01 -1.767451075714E-01 -1.008873049717E+01 -4.436087516678E-02 2.723843267157E+00 -9.142251676265E+01 -1.209425462379E-01 -3.938755588284E-01 -8.986294515425E-02 5.622804161722E-01 8.453717481511E-02 1.052327765496E+01 -8.392024897220E-01 -8.025196465353E-01 1.476736960906E+01 6.290729821598E+00 -1.381084542822E+01 1.907709270098E+02