#BIOSYM hessian 1
@Type: Hessian Update
@Units
 distance: 	A
 energy: 	Kcal/Mol
#header
@natom 67

#label
C1      C2      C3      C4      C5      C6      C7      C8      C9      C10     C11     C12     C13     C14     C15     C16     C17     C18     C19     C20     C21     C22     C23     H24     C25     C26     C27     C28     C29     C30     C31     C32     C33     C34     C35     C36     C37     C38     C39     C40     C41     C42     C43     C44     C45     C46     C47     C48     C49     H50     H51     H52     H53     H54     H55     H56     O57     H58     H59     H60     H61     H62     H63     H64     H65     H66     H67

#element
C  C  C  C  C  C  C  C  C  C  C  C  C  C  C  C  C  C  C  C  C  C  C  H  C  C  C  C  C  C  C  C  C  C  C  C  C  C  C  C  C  C  C  C  C  C  C  C  C  H  H  H  H  H  H  H  O  H  H  H  H  H  H  H  H  H  H 

#matrix
201
 2.786687259909E+03
 -2.335434720673E+01 2.826345930989E+03
 0.000000000000E+00 0.000000000000E+00 0.000000000000E+00
 4.010513200552E+01 6.725826595471E+01 0.000000000000E+00 2.790806223172E+03
 -4.286635214261E-01 -8.072921795505E-01 0.000000000000E+00 -2.318696326253E+01 2.770583764509E+03
 0.000000000000E+00 0.000000000000E+00 0.000000000000E+00 0.000000000000E+00 0.000000000000E+00 0.000000000000E+00
 -1.971529448959E+01 3.505474516255E+01 0.000000000000E+00 2.632853919383E-03 -3.925149637417E-04 0.000000000000E+00 2.811266850875E+03
 -3.350188440725E+01 5.954047886639E+01 0.000000000000E+00 -1.247285360185E-02 1.442996142640E-02 0.000000000000E+00 -3.113266527369E+01 2.817249872367E+03
 0.000000000000E+00 0.000000000000E+00 0.000000000000E+00 0.000000000000E+00 0.000000000000E+00 0.000000000000E+00 0.000000000000E+00 0.000000000000E+00 0.000000000000E+00
 3.860879068470E+01 -6.866908881515E+01 0.000000000000E+00 -1.955302857000E+01 3.533600939228E+01 0.000000000000E+00 4.232787161778E+01 7.177665317973E+01 0.000000000000E+00 2.787469365272E+03
 -5.316581124611E-01 9.174458280830E-01 0.000000000000E+00 -3.273628537047E+01 5.911987484426E+01 0.000000000000E+00 -5.674976582716E-01 -9.407327821451E-01 0.000000000000E+00 -1.954401265132E+01 2.832703903125E+03
 0.000000000000E+00 0.000000000000E+00 0.000000000000E+00 0.000000000000E+00 0.000000000000E+00 0.000000000000E+00 0.000000000000E+00 0.000000000000E+00 0.000000000000E+00 0.000000000000E+00 0.000000000000E+00 0.000000000000E+00
 6.284026786045E-03 -2.371673447803E-02 0.000000000000E+00 2.550695714062E-03 -5.467769560312E-03 0.000000000000E+00 4.167997038473E+01 -7.358083463138E+01 0.000000000000E+00 -2.153921690516E+01 3.857791537460E+01 0.000000000000E+00 2.633052465981E+03
 3.142149501339E-03 2.751629051530E-03 0.000000000000E+00 5.370708396636E-04 3.592234986411E-03 0.000000000000E+00 1.474188186868E-01 -2.822667925523E-01 0.000000000000E+00 -3.508817764141E+01 6.283947692543E+01 0.000000000000E+00 -2.214113136479E+02 2.900735060455E+03
 0.000000000000E+00 0.000000000000E+00 0.000000000000E+00 0.000000000000E+00 0.000000000000E+00 0.000000000000E+00 0.000000000000E+00 0.000000000000E+00 0.000000000000E+00 0.000000000000E+00 0.000000000000E+00 0.000000000000E+00 0.000000000000E+00 0.000000000000E+00 0.000000000000E+00
 -1.227154597127E+03 4.488330335410E+02 0.000000000000E+00 -4.659557847507E+02 -1.227576256675E+01 0.000000000000E+00 -2.584204603418E-03 2.465390383428E-02 0.000000000000E+00 2.045790984442E-02 3.477603541938E-02 0.000000000000E+00 -7.226346214732E-03 -3.268852421371E-03 0.000000000000E+00 2.822108693622E+03
 4.435514548627E+02 -7.453396649382E+02 0.000000000000E+00 -1.130864589249E+01 -1.436683445978E+03 0.000000000000E+00 1.023865845175E-02 -1.214109240821E-02 0.000000000000E+00 2.578037498988E-02 -2.068471450250E-03 0.000000000000E+00 1.651115039371E-02 -1.182862286583E-03 0.000000000000E+00 -1.564815615228E+00 2.786754487231E+03
 0.000000000000E+00 0.000000000000E+00 0.000000000000E+00 0.000000000000E+00 0.000000000000E+00 0.000000000000E+00 0.000000000000E+00 0.000000000000E+00 0.000000000000E+00 0.000000000000E+00 0.000000000000E+00 0.000000000000E+00 0.000000000000E+00 0.000000000000E+00 0.000000000000E+00 0.000000000000E+00 0.000000000000E+00 0.000000000000E+00
 -1.197944350903E+03 -4.108408168754E+02 0.000000000000E+00 -3.151698368629E-03 4.241321162420E-03 0.000000000000E+00 -1.257815285642E+03 4.502147921498E+02 0.000000000000E+00 -4.857037175173E+02 -1.576073424318E+01 0.000000000000E+00 -9.855715326924E-03 -1.179590991870E-02 0.000000000000E+00 -1.957169287067E+01 -3.282560960792E+01 0.000000000000E+00 2.820780402782E+03
 -4.103070867519E+02 -6.994305716042E+02 0.000000000000E+00 -1.820715166720E-03 1.244862815790E-02 0.000000000000E+00 4.520995408336E+02 -7.518840485654E+02 0.000000000000E+00 -1.781269117109E+01 -1.513065658007E+03 0.000000000000E+00 -1.340674337361E-02 1.631855050046E-02 0.000000000000E+00 3.480212229326E+01 5.827718532639E+01 0.000000000000E+00 -2.622059939582E+01 2.846448028981E+03
 0.000000000000E+00 0.000000000000E+00 0.000000000000E+00 0.000000000000E+00 0.000000000000E+00 0.000000000000E+00 0.000000000000E+00 0.000000000000E+00 0.000000000000E+00 0.000000000000E+00 0.000000000000E+00 0.000000000000E+00 0.000000000000E+00 0.000000000000E+00 0.000000000000E+00 0.000000000000E+00 0.000000000000E+00 0.000000000000E+00 0.000000000000E+00 0.000000000000E+00 0.000000000000E+00
 4.505434941416E-02 5.160211837263E-03 0.000000000000E+00 -1.223751351978E+03 -4.174470772768E+02 0.000000000000E+00 -8.941445360819E-03 6.416521744078E-03 0.000000000000E+00 -1.220787797298E+03 4.427777740661E+02 0.000000000000E+00 1.856358605311E-03 5.046093965120E-03 0.000000000000E+00 3.701440693922E+01 -4.655405222748E-01 0.000000000000E+00 4.178677511539E+01 -5.358255982541E-01 0.000000000000E+00 2.806133675511E+03
 6.873453920481E-03 -2.009450827663E-02 0.000000000000E+00 -4.197396175403E+02 -7.013335361731E+02 0.000000000000E+00 -4.089059564943E-03 -4.423839570674E-03 0.000000000000E+00 4.410530700609E+02 -7.395378345020E+02 0.000000000000E+00 1.692346011337E-03 2.618703957453E-03 0.000000000000E+00 -6.698395477622E+01 8.036142277298E-01 0.000000000000E+00 6.994460287999E+01 -9.144058910042E-01 0.000000000000E+00 -1.402868878574E+00 2.807586826024E+03
 0.000000000000E+00 0.000000000000E+00 0.000000000000E+00 0.000000000000E+00 0.000000000000E+00 0.000000000000E+00 0.000000000000E+00 0.000000000000E+00 0.000000000000E+00 0.000000000000E+00 0.000000000000E+00 0.000000000000E+00 0.000000000000E+00 0.000000000000E+00 0.000000000000E+00 0.000000000000E+00 0.000000000000E+00 0.000000000000E+00 0.000000000000E+00 0.000000000000E+00 0.000000000000E+00 0.000000000000E+00 0.000000000000E+00 0.000000000000E+00
 3.076920146379E-02 -2.876807659575E-02 0.000000000000E+00 5.676818193765E-03 -1.318224652062E-02 0.000000000000E+00 -1.200578730162E+03 -4.061707604827E+02 0.000000000000E+00 1.674835414978E-02 -9.251197688502E-03 0.000000000000E+00 -5.217487307650E+02 3.350980054940E+00 0.000000000000E+00 -1.550431374396E-02 1.864056439724E-03 0.000000000000E+00 -1.984834822479E+01 -3.365135558264E+01 0.000000000000E+00 -5.915677363859E-03 4.217858475789E-03 0.000000000000E+00 2.774435975088E+03
 5.095965181853E-03 -5.211826233292E-03 0.000000000000E+00 1.157062806634E-03 -4.468361474142E-04 0.000000000000E+00 -4.151057695514E+02 -7.012548651952E+02 0.000000000000E+00 5.484405842793E-03 -7.831797136153E-03 0.000000000000E+00 4.992197976514E+00 -1.635445430995E+03 0.000000000000E+00 2.668411385397E-04 -1.865477363720E-03 0.000000000000E+00 3.508167734226E+01 5.949905372869E+01 0.000000000000E+00 -9.276645893066E-03 -1.241115731778E-03 0.000000000000E+00 -2.932615692545E+01 2.959432910708E+03
 0.000000000000E+00 0.000000000000E+00 0.000000000000E+00 0.000000000000E+00 0.000000000000E+00 0.000000000000E+00 0.000000000000E+00 0.000000000000E+00 0.000000000000E+00 0.000000000000E+00 0.000000000000E+00 0.000000000000E+00 0.000000000000E+00 0.000000000000E+00 0.000000000000E+00 0.000000000000E+00 0.000000000000E+00 0.000000000000E+00 0.000000000000E+00 0.000000000000E+00 0.000000000000E+00 0.000000000000E+00 0.000000000000E+00 0.000000000000E+00 0.000000000000E+00 0.000000000000E+00 0.000000000000E+00
 -3.682702046442E-03 5.489861574471E-03 0.000000000000E+00 3.144143243849E-03 1.338143524185E-03 0.000000000000E+00 -1.349059439292E-02 4.376803318369E-03 0.000000000000E+00 -1.198933592229E+03 -4.147750851169E+02 0.000000000000E+00 -1.330003335555E+03 4.972466350646E+02 0.000000000000E+00 3.924767867800E-03 -8.202647161381E-03 0.000000000000E+00 3.846372722763E+01 -5.070361395132E-01 0.000000000000E+00 -1.937841341116E+01 -3.243780154145E+01 0.000000000000E+00 4.975382377899E+01 1.705462278307E-01 0.000000000000E+00 2.879525799427E+03
 -1.418857079752E-03 -4.809755759618E-03 0.000000000000E+00 2.288866871387E-03 3.586304095045E-03 0.000000000000E+00 7.874885936708E-03 1.105172124351E-02 0.000000000000E+00 -4.063128424701E+02 -7.001247352542E+02 0.000000000000E+00 4.953181781769E+02 -8.261725928862E+02 0.000000000000E+00 -3.445413779988E-03 2.847344405332E-03 0.000000000000E+00 -6.884971483192E+01 8.994116071881E-01 0.000000000000E+00 3.470197598361E+01 5.805597438340E+01 0.000000000000E+00 8.107277534616E+01 2.937118615367E-01 0.000000000000E+00 -9.688198640366E+01 2.846475251024E+03
 0.000000000000E+00 0.000000000000E+00 0.000000000000E+00 0.000000000000E+00 0.000000000000E+00 0.000000000000E+00 0.000000000000E+00 0.000000000000E+00 0.000000000000E+00 0.000000000000E+00 0.000000000000E+00 0.000000000000E+00 0.000000000000E+00 0.000000000000E+00 0.000000000000E+00 0.000000000000E+00 0.000000000000E+00 0.000000000000E+00 0.000000000000E+00 0.000000000000E+00 0.000000000000E+00 0.000000000000E+00 0.000000000000E+00 0.000000000000E+00 0.000000000000E+00 0.000000000000E+00 0.000000000000E+00 0.000000000000E+00 0.000000000000E+00 0.000000000000E+00
 -2.149187385560E-02 2.763681739827E-02 0.000000000000E+00 -2.209177357938E-04 1.101776456858E-02 0.000000000000E+00 1.091473887645E-02 -1.612010881340E-02 0.000000000000E+00 -6.231086843498E-03 -2.058815879877E-04 0.000000000000E+00 7.621433776146E-03 -6.113511768969E-04 0.000000000000E+00 9.578782164820E-03 -1.696285892247E-03 0.000000000000E+00 -2.455224306519E-03 -1.380509855478E-02 0.000000000000E+00 -1.439619500070E-03 1.324533687744E-03 0.000000000000E+00 5.571781585431E-03 4.835957882448E-03 0.000000000000E+00 -3.611304216183E-03 -1.087724799301E-03 0.000000000000E+00 2.807525810880E+03
 -2.841900578894E-02 4.452127946960E-02 0.000000000000E+00 -3.579774224402E-03 1.426081942004E-02 0.000000000000E+00 1.344778455977E-03 -1.432519838698E-02 0.000000000000E+00 -7.619712396243E-03 6.203481074049E-03 0.000000000000E+00 2.863255688571E-03 -2.642661070732E-04 0.000000000000E+00 1.200160643390E-02 -1.171627779745E-02 0.000000000000E+00 -4.627039510206E-03 -1.537237313400E-02 0.000000000000E+00 2.572366254918E-04 -5.051756613873E-03 0.000000000000E+00 1.385654970436E-02 -7.294490377770E-04 0.000000000000E+00 3.931321131745E-04 2.508609362841E-05 0.000000000000E+00 2.402879768788E+00 2.797576007528E+03
 0.000000000000E+00 0.000000000000E+00 0.000000000000E+00 0.000000000000E+00 0.000000000000E+00 0.000000000000E+00 0.000000000000E+00 0.000000000000E+00 0.000000000000E+00 0.000000000000E+00 0.000000000000E+00 0.000000000000E+00 0.000000000000E+00 0.000000000000E+00 0.000000000000E+00 0.000000000000E+00 0.000000000000E+00 0.000000000000E+00 0.000000000000E+00 0.000000000000E+00 0.000000000000E+00 0.000000000000E+00 0.000000000000E+00 0.000000000000E+00 0.000000000000E+00 0.000000000000E+00 0.000000000000E+00 0.000000000000E+00 0.000000000000E+00 0.000000000000E+00 0.000000000000E+00 0.000000000000E+00 0.000000000000E+00
 -2.858599450254E-02 3.359438543702E-02 0.000000000000E+00 -1.753803653242E-03 7.564477621032E-03 0.000000000000E+00 7.262350192305E-03 -1.468574406960E-02 0.000000000000E+00 -9.417597194188E-03 2.475413878892E-03 0.000000000000E+00 5.054576670183E-03 -4.191618045164E-04 0.000000000000E+00 1.378874786221E-02 -1.513916842279E-02 0.000000000000E+00 -4.887769176268E-03 -1.152199017485E-02 0.000000000000E+00 2.665123901238E-03 -7.303642036389E-04 0.000000000000E+00 1.041093686281E-02 6.316208596787E-04 0.000000000000E+00 -1.548204419520E-03 -1.186711791847E-03 0.000000000000E+00 4.180572998425E+01 7.154756575834E+01 0.000000000000E+00 2.783166501859E+03
 -4.119547898727E-03 5.989244065152E-04 0.000000000000E+00 -3.104431926441E-03 1.660372440049E-03 0.000000000000E+00 9.187645746122E-04 -2.065454183133E-03 0.000000000000E+00 -2.350738976072E-03 8.363451655563E-04 0.000000000000E+00 -2.780552698813E-04 -4.484165762306E-04 0.000000000000E+00 6.553666549007E-03 4.660363945036E-03 0.000000000000E+00 -2.191243168170E-04 -2.477081667421E-04 0.000000000000E+00 1.628181226937E-03 -1.336468650989E-03 0.000000000000E+00 2.121791102120E-03 3.798696850601E-04 0.000000000000E+00 1.321825846167E-03 2.139452510179E-04 0.000000000000E+00 -1.147084314875E+00 -1.972947906364E+00 0.000000000000E+00 2.784567123600E+02 2.856766958443E+03
 0.000000000000E+00 0.000000000000E+00 0.000000000000E+00 0.000000000000E+00 0.000000000000E+00 0.000000000000E+00 0.000000000000E+00 0.000000000000E+00 0.000000000000E+00 0.000000000000E+00 0.000000000000E+00 0.000000000000E+00 0.000000000000E+00 0.000000000000E+00 0.000000000000E+00 0.000000000000E+00 0.000000000000E+00 0.000000000000E+00 0.000000000000E+00 0.000000000000E+00 0.000000000000E+00 0.000000000000E+00 0.000000000000E+00 0.000000000000E+00 0.000000000000E+00 0.000000000000E+00 0.000000000000E+00 0.000000000000E+00 0.000000000000E+00 0.000000000000E+00 0.000000000000E+00 0.000000000000E+00 0.000000000000E+00 0.000000000000E+00 0.000000000000E+00 0.000000000000E+00
 -2.027388942982E+01 -3.417125364522E+01 0.000000000000E+00 3.833166158835E+01 -4.889145844151E-01 0.000000000000E+00 3.024143316978E-03 2.847589860042E-02 0.000000000000E+00 1.931282766340E-02 -3.734982154296E-03 0.000000000000E+00 -1.241649975848E-03 7.557392318401E-04 0.000000000000E+00 -1.248767898509E+03 -4.314373865313E+02 0.000000000000E+00 7.187642217110E-03 1.479227019378E-02 0.000000000000E+00 -1.634992793064E-02 7.149289629337E-03 0.000000000000E+00 -2.741747566015E-02 3.704273890832E-03 0.000000000000E+00 -2.943495352026E-03 -9.767191124711E-04 0.000000000000E+00 -1.942134083194E+01 3.434343314403E+01 0.000000000000E+00 1.681706964693E-02 -1.237747059268E-03 0.000000000000E+00 2.778446477462E+03
 3.620872432054E+01 6.055264250044E+01 0.000000000000E+00 -6.822564572162E+01 8.189301460118E-01 0.000000000000E+00 1.201430038796E-02 1.674795727909E-04 0.000000000000E+00 -8.543519032563E-03 -4.614051125748E-03 0.000000000000E+00 -4.988791442537E-03 -2.070838254019E-03 0.000000000000E+00 -4.362578179531E+02 -7.211753306839E+02 0.000000000000E+00 1.042925019427E-02 1.047570191617E-02 0.000000000000E+00 9.081679290710E-03 -5.436317421086E-03 0.000000000000E+00 -8.363806833746E-03 1.252964113242E-02 0.000000000000E+00 7.020397508814E-03 9.824334229824E-04 0.000000000000E+00 -3.230052723883E+01 5.702693478730E+01 0.000000000000E+00 1.922295803597E-02 -7.375046796737E-03 0.000000000000E+00 1.725271509638E+01 2.812925579307E+03
 0.000000000000E+00 0.000000000000E+00 0.000000000000E+00 0.000000000000E+00 0.000000000000E+00 0.000000000000E+00 0.000000000000E+00 0.000000000000E+00 0.000000000000E+00 0.000000000000E+00 0.000000000000E+00 0.000000000000E+00 0.000000000000E+00 0.000000000000E+00 0.000000000000E+00 0.000000000000E+00 0.000000000000E+00 0.000000000000E+00 0.000000000000E+00 0.000000000000E+00 0.000000000000E+00 0.000000000000E+00 0.000000000000E+00 0.000000000000E+00 0.000000000000E+00 0.000000000000E+00 0.000000000000E+00 0.000000000000E+00 0.000000000000E+00 0.000000000000E+00 0.000000000000E+00 0.000000000000E+00 0.000000000000E+00 0.000000000000E+00 0.000000000000E+00 0.000000000000E+00 0.000000000000E+00 0.000000000000E+00 0.000000000000E+00
 -2.396104081586E-03 4.504993202942E-04 0.000000000000E+00 -1.889763068373E+01 -3.110032803034E+01 0.000000000000E+00 8.148840686473E-03 -6.609241864760E-03 0.000000000000E+00 -3.498383608143E-03 -3.490434818036E-03 0.000000000000E+00 1.851258054929E-03 -1.352469884582E-03 0.000000000000E+00 3.512967775140E-03 -1.275109602171E-02 0.000000000000E+00 1.532872955224E-03 4.436306522926E-04 0.000000000000E+00 2.901711828291E-03 2.060643360367E-03 0.000000000000E+00 -9.198146356776E-04 5.330613169358E-03 0.000000000000E+00 6.348633355312E-04 -3.578437802033E-04 0.000000000000E+00 3.928848587531E+01 -6.938762632284E+01 0.000000000000E+00 -2.297127639670E+01 4.059431946396E+01 0.000000000000E+00 4.024401667467E+01 6.685981257988E+01 0.000000000000E+00 2.770991682650E+03
 -1.128343047664E-02 2.464276170477E-03 0.000000000000E+00 3.376543517409E+01 5.553771758803E+01 0.000000000000E+00 5.599372938903E-03 -2.067619692093E-03 0.000000000000E+00 -1.276322886086E-04 -4.874120258979E-03 0.000000000000E+00 2.459440352531E-03 -3.798530165012E-04 0.000000000000E+00 -4.577439533699E-03 -9.812453299644E-03 0.000000000000E+00 -4.395758356578E-03 -5.188536698009E-03 0.000000000000E+00 6.172077754390E-04 6.706601011503E-03 0.000000000000E+00 -1.487345763534E-04 1.021140307959E-03 0.000000000000E+00 -4.883789719022E-04 1.728334209043E-03 0.000000000000E+00 -2.155880332874E-01 3.645201192645E-01 0.000000000000E+00 -4.185073532251E+01 7.400199719661E+01 0.000000000000E+00 -1.940626010691E-01 -3.341179546105E-01 0.000000000000E+00 -3.765079857309E+01 2.754897287184E+03
 0.000000000000E+00 0.000000000000E+00 0.000000000000E+00 0.000000000000E+00 0.000000000000E+00 0.000000000000E+00 0.000000000000E+00 0.000000000000E+00 0.000000000000E+00 0.000000000000E+00 0.000000000000E+00 0.000000000000E+00 0.000000000000E+00 0.000000000000E+00 0.000000000000E+00 0.000000000000E+00 0.000000000000E+00 0.000000000000E+00 0.000000000000E+00 0.000000000000E+00 0.000000000000E+00 0.000000000000E+00 0.000000000000E+00 0.000000000000E+00 0.000000000000E+00 0.000000000000E+00 0.000000000000E+00 0.000000000000E+00 0.000000000000E+00 0.000000000000E+00 0.000000000000E+00 0.000000000000E+00 0.000000000000E+00 0.000000000000E+00 0.000000000000E+00 0.000000000000E+00 0.000000000000E+00 0.000000000000E+00 0.000000000000E+00 0.000000000000E+00 0.000000000000E+00 0.000000000000E+00
 1.957854869517E-02 -1.746086902896E-02 0.000000000000E+00 -1.553165794041E-03 1.999138840155E-04 0.000000000000E+00 -4.488360577382E-03 5.217749391341E-03 0.000000000000E+00 4.457755069294E-03 -4.531599999064E-03 0.000000000000E+00 -3.585729322619E-03 5.362312635834E-04 0.000000000000E+00 -1.027409291012E-02 4.183925741286E-03 0.000000000000E+00 6.279979203931E-03 7.468000320410E-03 0.000000000000E+00 -1.919307536141E-04 7.436567159721E-04 0.000000000000E+00 -6.529193009796E-03 2.250530503267E-03 0.000000000000E+00 1.103439434544E-03 7.693093320432E-04 0.000000000000E+00 -1.231218186817E+03 4.355131446969E+02 0.000000000000E+00 -5.072458596136E+02 -2.039181929445E+01 0.000000000000E+00 -4.135686783807E-03 -3.880472855881E-03 0.000000000000E+00 1.155310469572E-02 1.590466724937E-02 0.000000000000E+00 2.842118949916E+03
 1.072045399707E-02 -1.470945562334E-02 0.000000000000E+00 4.320970340050E-03 -9.709796788279E-03 0.000000000000E+00 -2.436994010065E-03 7.945381546245E-03 0.000000000000E+00 4.370329578177E-03 -1.678962249735E-03 0.000000000000E+00 -1.142972737741E-03 3.532050134791E-04 0.000000000000E+00 -9.444790528848E-03 -2.825814550263E-03 0.000000000000E+00 4.878066058796E-04 5.874228798425E-03 0.000000000000E+00 -1.080429216323E-03 2.881364229444E-03 0.000000000000E+00 -5.705274393167E-03 -1.623307793850E-03 0.000000000000E+00 -1.038616560200E-03 -3.088915984457E-04 0.000000000000E+00 4.377600735008E+02 -7.342456334399E+02 0.000000000000E+00 -3.033248668857E+01 -1.541101414440E+03 0.000000000000E+00 -5.699726827263E-03 1.757094478567E-02 0.000000000000E+00 7.319011809420E-03 -1.556166069463E-03 0.000000000000E+00 2.989079313064E+01 2.892355438943E+03
 0.000000000000E+00 0.000000000000E+00 0.000000000000E+00 0.000000000000E+00 0.000000000000E+00 0.000000000000E+00 0.000000000000E+00 0.000000000000E+00 0.000000000000E+00 0.000000000000E+00 0.000000000000E+00 0.000000000000E+00 0.000000000000E+00 0.000000000000E+00 0.000000000000E+00 0.000000000000E+00 0.000000000000E+00 0.000000000000E+00 0.000000000000E+00 0.000000000000E+00 0.000000000000E+00 0.000000000000E+00 0.000000000000E+00 0.000000000000E+00 0.000000000000E+00 0.000000000000E+00 0.000000000000E+00 0.000000000000E+00 0.000000000000E+00 0.000000000000E+00 0.000000000000E+00 0.000000000000E+00 0.000000000000E+00 0.000000000000E+00 0.000000000000E+00 0.000000000000E+00 0.000000000000E+00 0.000000000000E+00 0.000000000000E+00 0.000000000000E+00 0.000000000000E+00 0.000000000000E+00 0.000000000000E+00 0.000000000000E+00 0.000000000000E+00
 2.728033212090E-03 1.419111878745E-02 0.000000000000E+00 7.197676115986E-03 2.037262773573E-02 0.000000000000E+00 1.318466433875E-03 -4.864288204106E-03 0.000000000000E+00 -3.677681190366E-04 3.160853392951E-03 0.000000000000E+00 -1.642189139392E-03 -2.772023918805E-03 0.000000000000E+00 -1.967959635641E+01 3.498330843468E+01 0.000000000000E+00 -1.449403099630E-03 -2.256547499633E-03 0.000000000000E+00 2.077503005546E-03 -3.718640615052E-03 0.000000000000E+00 2.799848004143E-03 3.585580408470E-03 0.000000000000E+00 3.273395711978E-03 1.067140602775E-03 0.000000000000E+00 -1.223519803866E+03 -4.239494200403E+02 0.000000000000E+00 -1.164594575784E-02 2.351426551830E-02 0.000000000000E+00 -1.171316385941E+03 4.259623933903E+02 0.000000000000E+00 -4.718812372781E+02 -1.296738021479E+01 0.000000000000E+00 -1.968000804936E+01 -3.371833615925E+01 0.000000000000E+00 2.751476703014E+03
 -1.309569760152E-02 2.805491391976E-02 0.000000000000E+00 2.428556498568E-02 -7.874923302665E-03 0.000000000000E+00 -3.072508506684E-03 -3.327202233987E-03 0.000000000000E+00 -1.585528380056E-03 -5.424540222614E-04 0.000000000000E+00 2.196968316396E-03 1.566345913113E-03 0.000000000000E+00 -3.268727818963E+01 5.808364020825E+01 0.000000000000E+00 -3.622111486536E-03 -2.912264689623E-03 0.000000000000E+00 2.269823403340E-03 3.050418130284E-03 0.000000000000E+00 5.702948245887E-03 -5.142460622169E-03 0.000000000000E+00 -2.765298236475E-03 -4.981813063045E-04 0.000000000000E+00 -4.272263554525E+02 -7.107249722377E+02 0.000000000000E+00 1.967330317857E-02 1.413331398570E-02 0.000000000000E+00 4.270492961212E+02 -7.200257579400E+02 0.000000000000E+00 -3.602148222427E+00 -1.496619460221E+03 0.000000000000E+00 3.473812069379E+01 5.952282809178E+01 0.000000000000E+00 3.794407223584E+00 2.809617470402E+03
 0.000000000000E+00 0.000000000000E+00 0.000000000000E+00 0.000000000000E+00 0.000000000000E+00 0.000000000000E+00 0.000000000000E+00 0.000000000000E+00 0.000000000000E+00 0.000000000000E+00 0.000000000000E+00 0.000000000000E+00 0.000000000000E+00 0.000000000000E+00 0.000000000000E+00 0.000000000000E+00 0.000000000000E+00 0.000000000000E+00 0.000000000000E+00 0.000000000000E+00 0.000000000000E+00 0.000000000000E+00 0.000000000000E+00 0.000000000000E+00 0.000000000000E+00 0.000000000000E+00 0.000000000000E+00 0.000000000000E+00 0.000000000000E+00 0.000000000000E+00 0.000000000000E+00 0.000000000000E+00 0.000000000000E+00 0.000000000000E+00 0.000000000000E+00 0.000000000000E+00 0.000000000000E+00 0.000000000000E+00 0.000000000000E+00 0.000000000000E+00 0.000000000000E+00 0.000000000000E+00 0.000000000000E+00 0.000000000000E+00 0.000000000000E+00 0.000000000000E+00 0.000000000000E+00 0.000000000000E+00
 7.512897325411E-03 -5.362280018186E-03 0.000000000000E+00 -4.144335917746E-04 2.571224140313E-03 0.000000000000E+00 -2.055642736291E-03 1.339872025158E-03 0.000000000000E+00 2.241615542903E-03 -2.436722015888E-04 0.000000000000E+00 -1.635985056091E-03 -3.283771003210E-04 0.000000000000E+00 -2.861518533938E-03 5.620139698179E-03 0.000000000000E+00 1.906285152437E-03 2.021332771626E-03 0.000000000000E+00 -1.122984279715E-03 -1.148648288270E-03 0.000000000000E+00 -1.861953236669E-03 1.218666655146E-03 0.000000000000E+00 1.021013011191E-03 4.507947224709E-04 0.000000000000E+00 -9.323006140826E-03 1.694478976169E-02 0.000000000000E+00 -1.507855285689E+03 -5.265176010603E+02 0.000000000000E+00 -5.113520214717E-03 -9.906199509842E-03 0.000000000000E+00 -1.275693907088E+03 4.367344044576E+02 0.000000000000E+00 4.855657725545E+01 -1.327532859153E+00 0.000000000000E+00 3.946808843804E+01 -2.259824949821E-01 0.000000000000E+00 3.073473069162E+03
 -4.976944810878E-03 1.356249537082E-02 0.000000000000E+00 -1.617497331500E-04 4.536494591459E-03 0.000000000000E+00 -1.151376789834E-03 -2.638649542530E-03 0.000000000000E+00 -9.771203306719E-04 2.160291662333E-03 0.000000000000E+00 2.564185359730E-04 2.907940002187E-04 0.000000000000E+00 1.163553318255E-03 -2.081498181779E-03 0.000000000000E+00 -1.590631328735E-03 -3.989674833791E-03 0.000000000000E+00 -4.905133326252E-04 -2.009415342320E-03 0.000000000000E+00 4.127841107849E-03 -1.167004122613E-03 0.000000000000E+00 2.766839837065E-04 3.068951897136E-04 0.000000000000E+00 -3.305490993920E-03 2.223429698485E-02 0.000000000000E+00 -5.362878834148E+02 -8.626973095762E+02 0.000000000000E+00 4.337982075537E-03 -1.077187708435E-02 0.000000000000E+00 4.215179851838E+02 -7.275724051702E+02 0.000000000000E+00 -8.589193800770E+01 2.352578814739E+00 0.000000000000E+00 7.187678000856E+01 -4.138380795109E-01 0.000000000000E+00 8.892856114060E+01 2.537786826519E+03
 0.000000000000E+00 0.000000000000E+00 0.000000000000E+00 0.000000000000E+00 0.000000000000E+00 0.000000000000E+00 0.000000000000E+00 0.000000000000E+00 0.000000000000E+00 0.000000000000E+00 0.000000000000E+00 0.000000000000E+00 0.000000000000E+00 0.000000000000E+00 0.000000000000E+00 0.000000000000E+00 0.000000000000E+00 0.000000000000E+00 0.000000000000E+00 0.000000000000E+00 0.000000000000E+00 0.000000000000E+00 0.000000000000E+00 0.000000000000E+00 0.000000000000E+00 0.000000000000E+00 0.000000000000E+00 0.000000000000E+00 0.000000000000E+00 0.000000000000E+00 0.000000000000E+00 0.000000000000E+00 0.000000000000E+00 0.000000000000E+00 0.000000000000E+00 0.000000000000E+00 0.000000000000E+00 0.000000000000E+00 0.000000000000E+00 0.000000000000E+00 0.000000000000E+00 0.000000000000E+00 0.000000000000E+00 0.000000000000E+00 0.000000000000E+00 0.000000000000E+00 0.000000000000E+00 0.000000000000E+00 0.000000000000E+00 0.000000000000E+00 0.000000000000E+00
 2.059658428629E-02 -4.676819793341E-02 0.000000000000E+00 -1.222204228494E+03 4.477851609710E+02 0.000000000000E+00 -9.627077227694E-03 2.487441954697E-02 0.000000000000E+00 2.149095644874E-02 -5.161036839584E-03 0.000000000000E+00 -3.644444272133E-03 2.766678122414E-03 0.000000000000E+00 4.068774051291E+01 -4.438628517763E-01 0.000000000000E+00 2.391800341794E-03 4.829828090046E-03 0.000000000000E+00 -1.994950346727E+01 3.603395627850E+01 0.000000000000E+00 -1.539826805756E-02 -5.274885397515E-03 0.000000000000E+00 -2.944494664209E-03 4.773772691627E-03 0.000000000000E+00 9.883912169849E-03 1.501048220753E-02 0.000000000000E+00 1.103714701126E-02 1.389935533677E-03 0.000000000000E+00 1.768348240856E-02 1.132391896146E-03 0.000000000000E+00 -1.140071329094E+03 -3.876904511922E+02 0.000000000000E+00 -4.438722631516E-03 -5.315299444325E-03 0.000000000000E+00 3.641098087014E+01 -2.157709214499E-01 0.000000000000E+00 -1.767556463542E+01 -3.220008893323E+01 0.000000000000E+00 2.728466888587E+03
 -6.029698338600E-03 1.077065787230E-02 0.000000000000E+00 4.571829721534E+02 -7.453182028637E+02 0.000000000000E+00 -3.677871645424E-03 -6.307537643259E-03 0.000000000000E+00 -2.292992763215E-04 1.659925781755E-02 0.000000000000E+00 1.906618107186E-03 -4.157939030461E-04 0.000000000000E+00 6.697237670825E+01 -7.637174389131E-01 0.000000000000E+00 4.745596396581E-03 -2.505978651299E-03 0.000000000000E+00 -3.281432315273E+01 5.927356237661E+01 0.000000000000E+00 5.013045429955E-03 -3.458150492562E-04 0.000000000000E+00 -4.836297373279E-03 -5.472428517090E-03 0.000000000000E+00 -5.178869372357E-03 -3.128149062395E-03 0.000000000000E+00 2.495907893619E-03 -2.633294694906E-03 0.000000000000E+00 6.636752943048E-03 -3.291815043908E-02 0.000000000000E+00 -3.861350066842E+02 -6.649664347212E+02 0.000000000000E+00 -3.604064907617E-03 7.278588011514E-03 0.000000000000E+00 -6.506442514803E+01 3.736317651378E-01 0.000000000000E+00 3.155732441237E+01 5.750740130836E+01 0.000000000000E+00 -7.053951028930E+00 2.820499768532E+03
 0.000000000000E+00 0.000000000000E+00 0.000000000000E+00 0.000000000000E+00 0.000000000000E+00 0.000000000000E+00 0.000000000000E+00 0.000000000000E+00 0.000000000000E+00 0.000000000000E+00 0.000000000000E+00 0.000000000000E+00 0.000000000000E+00 0.000000000000E+00 0.000000000000E+00 0.000000000000E+00 0.000000000000E+00 0.000000000000E+00 0.000000000000E+00 0.000000000000E+00 0.000000000000E+00 0.000000000000E+00 0.000000000000E+00 0.000000000000E+00 0.000000000000E+00 0.000000000000E+00 0.000000000000E+00 0.000000000000E+00 0.000000000000E+00 0.000000000000E+00 0.000000000000E+00 0.000000000000E+00 0.000000000000E+00 0.000000000000E+00 0.000000000000E+00 0.000000000000E+00 0.000000000000E+00 0.000000000000E+00 0.000000000000E+00 0.000000000000E+00 0.000000000000E+00 0.000000000000E+00 0.000000000000E+00 0.000000000000E+00 0.000000000000E+00 0.000000000000E+00 0.000000000000E+00 0.000000000000E+00 0.000000000000E+00 0.000000000000E+00 0.000000000000E+00 0.000000000000E+00 0.000000000000E+00 0.000000000000E+00