#BIOSYM hessian 1
@Type: Hessian Update
@Units
 distance: 	A
 energy: 	Kcal/Mol
#header
@natom 67

#label
C1      C2      C3      C4      C5      C6      C7      C8      C9      C10     C11     C12     C13     C14     C15     C16     C17     C18     C19     C20     C21     C22     C23     H24     C25     C26     C27     C28     C29     C30     C31     C32     C33     C34     C35     C36     C37     C38     C39     C40     C41     C42     C43     C44     C45     C46     C47     C48     C49     H50     H51     H52     H53     H54     H55     H56     H57     H58     H59     H60     H61     H62     H63     H64     H65     H66     H67

#element
C  C  C  C  C  C  C  C  C  C  C  C  C  C  C  C  C  C  C  C  C  C  C  H  C  C  C  C  C  C  C  C  C  C  C  C  C  C  C  C  C  C  C  C  C  C  C  C  C  H  H  H  H  H  H  H  H  H  H  H  H  H  H  H  H  H  H 

#matrix
201
 2.784225016226E+03
 -3.518839315456E+01 2.758146087323E+03
 -8.743505862356E+01 -1.647209689296E+02 2.141429671361E+02
 3.960112341263E+01 7.373600827893E+01 -4.166432501463E+00 2.791164112184E+03
 2.605544611616E+00 -3.901999829559E+01 3.451839303173E+00 -1.621813059746E+01 2.711839077493E+03
 -1.114849874508E+00 -1.474108116482E+00 8.368437319708E+00 6.036807593710E+00 -1.624712128983E+02 2.027170001478E+02
 -2.014520017269E+01 3.262732276601E+01 2.210351571038E+00 2.960409469400E-01 -1.764876182747E+00 -8.680642769590E-02 2.814888475474E+03
 -3.505485321631E+01 5.503061984721E+01 -2.358995331985E+00 6.431526519213E-01 -5.095484300491E+00 -8.171681314593E-02 -3.243763930041E+01 2.810926588778E+03
 2.988492014022E+00 -4.666367183046E+00 9.864260554688E+00 -1.086864427061E-01 5.571957799419E-01 1.425405020479E-01 -1.908288918441E+01 -1.070028868504E+02 1.998828801676E+02
 3.800126196389E+01 -6.532601286212E+01 3.679652831320E-01 -2.041407716565E+01 3.891367688432E+01 -1.394332590817E+00 4.228105843750E+01 7.236159698781E+01 -3.372417848430E+00 2.790842613518E+03
 1.591817852545E+00 -3.766996034218E+00 -1.158650146455E-01 -3.171997569945E+01 5.520774043104E+01 9.855967059803E-02 -4.326488427824E-02 -9.349476329136E-02 -1.186600879041E-01 -2.221668267102E+01 2.825154963897E+03
 -1.714595114854E+00 4.175734354039E+00 9.112180811323E+00 1.796640434781E+00 -2.266899940330E+00 8.973634990523E+00 -5.780656535529E-01 2.468390035196E-01 9.002448040021E+00 -3.161354639166E+01 -1.033010677988E+02 1.995500040886E+02
 -6.074313886902E-01 3.718397825085E+00 2.008305527289E-01 -5.930533489913E-01 3.105106670363E+00 8.901791845341E-02 4.230612188980E+01 -7.285332279153E+01 3.275055197670E+00 -2.191562757940E+01 3.821099913073E+01 -9.275320188294E-01 2.636962873351E+03
 3.109756947143E-01 -1.258742853215E+01 2.695861127154E-01 2.572604199957E+00 -1.444948186735E+01 4.287843630111E-01 -1.104847034698E-01 -2.583787915161E+00 7.767924991052E-01 -3.435102888021E+01 6.177177641097E+01 -1.746125950674E+00 -2.240788439412E+02 2.888940741715E+03
 1.014564887835E-02 -7.303726138988E-01 3.121572389315E-03 4.664172682272E-01 -1.669467254983E+00 9.392942327234E-01 -7.676705592814E-02 6.506684418492E-01 1.064389048176E+01 2.065492097088E+00 -2.210272817690E+00 1.040665459685E+01 -1.572082040019E+01 -1.164338764808E+02 1.606932494877E+02
 -1.230458101390E+03 4.490592150318E+02 -1.965432794263E+00 -4.718971904829E+02 -1.125218311898E+01 -9.288178469982E-02 -2.575464049758E-01 -2.263534635528E-01 -1.873625957796E-01 5.085973121110E-01 -7.581806139002E-01 2.152887603371E-01 2.488531791214E-01 -7.024979998617E-01 -9.538525302930E-02 2.825415679971E+03
 4.399297033881E+02 -6.847182919780E+02 1.611572852101E+01 -1.628634742335E+01 -1.381325965088E+03 9.307192003198E+01 1.914899345329E+00 4.891258331939E+00 -4.890599506232E-02 -3.813219205472E+00 4.658355706256E+00 -9.647410707569E-01 -3.556248366871E+00 1.516257853421E+01 1.648590005432E+00 6.732912469381E-01 2.706058437706E+03
 -3.531589428234E+00 2.912454974504E+01 -8.442067243549E+01 -3.481512926176E-01 8.196531183741E+01 -8.814673919752E+01 -9.616383106781E-01 1.714601618347E+00 4.458327250906E+00 2.533744118312E+00 -5.164270489889E-01 -8.674609149280E+00 8.249059895987E-01 5.714418769502E-01 -6.292461106246E-01 5.200324504619E+00 -1.313522036110E+02 1.998562319404E+02
 -1.187619313095E+03 -4.103286801462E+02 5.985276545204E+01 -6.858361362651E-02 3.146791582496E+00 1.662405955710E+00 -1.263251116580E+03 4.485735971198E+02 -9.714594760314E+00 -4.861586726471E+02 -8.384651270393E+00 8.499848012864E+00 8.608183710528E-02 1.263192623908E+00 2.766551111855E-01 -1.963117311383E+01 -3.587243726827E+01 2.093323084567E+00 2.817221497077E+03
 -4.134936093621E+02 -6.947776173622E+02 5.526642954502E+01 5.664040204419E-02 -4.016876353442E-01 -2.716145330982E-01 4.490111465424E+02 -7.465070467505E+02 2.907747823867E+01 -1.077098008310E+01 -1.509932978696E+03 5.391680429473E+01 -4.916372736686E-01 -4.626676288231E-01 -8.199780596902E-01 3.383637838213E+01 5.460945040365E+01 -8.148833339910E+00 -2.935730955621E+01 2.837050927005E+03
 5.691399065803E+01 5.067096635387E+01 -8.712629515128E+01 9.727411663960E-01 -3.170586129411E-01 -7.999060375945E+00 -5.153973611306E+00 2.347187369073E+01 -8.653510262493E+01 7.943178861713E+00 6.130946496578E+01 -8.786330482903E+01 -2.088862698103E+00 -1.401811816628E+00 -9.159658917116E+00 -1.759166060587E+00 -2.597543309109E-01 9.140475094477E+00 -5.872545947809E+01 -1.316943922770E+02 2.059159243392E+02
 -7.128063497073E-01 9.707252531484E-01 3.487865162229E-01 -1.218654395316E+03 -4.223259909533E+02 3.025513183390E+01 3.615347488275E-01 3.439472769390E-02 7.525523882718E-01 -1.227544169374E+03 4.400892798504E+02 -2.657238853101E+00 -8.737384897481E-02 -5.117025574422E-01 3.463003661601E-01 3.790196621926E+01 4.291907665856E-01 -2.768031987224E+00 4.162687572101E+01 -1.203784756711E+00 -1.555519331737E+00 2.808764216661E+03
 -2.101155954035E+00 1.272133593811E+01 -1.603303778268E+00 -4.261619271491E+02 -6.875861168131E+02 3.451623714176E+01 2.300816413666E-01 1.105044252897E+00 4.056464941695E-02 4.370520046058E+02 -7.312199924905E+02 2.031825345172E+01 -1.060551661777E+00 4.440913692770E+00 4.239828414596E-01 -6.586880418273E+01 -1.454947119836E+01 2.852664372117E+00 6.923020257124E+01 -8.491650766597E-01 -1.582878359280E+00 8.854499776574E-01 2.793752431877E+03
 1.152926109736E+00 -2.491579284692E+00 -8.702135467716E+00 3.051961423806E+01 3.627404563478E+01 -8.314334964497E+01 -1.923013743749E-01 -3.304393574632E-01 4.961662363234E+00 -2.245912108636E+00 1.935138541904E+01 -8.432072916665E+01 3.895974075012E-01 -6.947488814848E-01 5.321004452403E+00 4.472665432566E+00 2.767173365279E+00 8.222659822251E+00 -2.765972161329E+00 1.431096961462E+00 9.543735254955E+00 -3.196961450317E+01 -1.166872867359E+02 2.001674576328E+02
 -5.048114051725E-01 -3.709452580034E+00 -6.191308012020E-01 1.368629121534E+00 -6.281259082118E+00 -3.928853073017E-01 -1.195194995635E+03 -4.084371663883E+02 2.503034810699E+01 5.135238955068E-01 -1.498656677062E-01 -3.889207111134E-01 -5.248486648021E+02 8.572315470071E+00 2.223319618165E+00 -4.926772752326E-01 5.536798865525E+00 -4.707166037621E-01 -1.977603956333E+01 -3.452389554334E+01 1.401664724777E+00 -9.423912249393E-01 1.946460248827E+00 -6.256883169393E-01 2.770579230513E+03
 -4.721099823348E-01 1.512303591971E+01 -3.629416755777E-01 -2.980549703770E+00 1.730453137586E+01 -1.823342314846E-01 -4.158736315448E+02 -6.985253649612E+02 2.871296360495E+01 -1.243429144847E+00 1.310896726490E+00 -1.008315959195E+00 1.146988718185E+01 -1.626993296003E+03 6.873609881741E+01 7.382646710956E-01 -1.833904961166E+01 -1.262382170612E+00 3.308485561785E+01 5.954770345893E+01 9.974480547433E-01 6.956637746233E-01 -5.384277685504E+00 1.000048315464E+00 -3.231547637065E+01 2.947512433087E+03
 -1.804336882480E-02 1.408632615595E-01 4.495305036958E+00 -4.493606018080E-01 7.322827674626E-01 -1.633979555671E+00 2.490837575017E+01 2.873851630668E+01 -8.431295438853E+01 -3.662074604476E-01 -1.006828111473E+00 -9.480896278353E+00 2.779214774617E+00 6.882455979941E+01 -8.252000146491E+01 4.467368939503E-02 -9.533266877221E-01 9.638685825481E-01 -1.702110059715E+00 -1.190027565775E+00 8.987927844317E+00 -4.487911602324E-01 1.584772235123E-01 -7.954590188501E-01 -1.253211201918E+01 -1.224337862924E+02 1.895400931393E+02
 8.570410550368E-01 -3.375422760990E+00 4.101805171898E-01 2.996075999500E-01 -2.707362967570E+00 -1.040788234843E+00 -6.035268474564E-01 -3.873787278677E-01 -6.550094245788E-01 -1.195070315089E+03 -4.166382916559E+02 2.846421042701E+01 -1.336158790507E+03 4.946399150325E+02 -8.550929663290E+00 -1.909149616494E-01 2.965573447667E+00 -8.478502533400E-01 3.865256284365E+01 2.961118971576E-01 1.754944227978E+00 -1.943068878906E+01 -3.166731133736E+01 8.311923793167E-01 4.994985218249E+01 1.174344862947E+00 1.538937190440E-01 2.883547084451E+03
 -6.326596442030E-02 4.219198171993E+00 6.648101024809E-01 -9.062644752001E-01 4.414937357234E+00 -5.216756901386E-01 2.587971606388E-01 7.964324234339E-01 -4.657755257640E-01 -4.080519581427E+02 -7.023646955348E+02 2.881437826743E+01 4.933316146817E+02 -8.166437239411E+02 2.554575556498E+01 3.459467029187E-01 -4.564919428105E+00 2.064783830986E-01 -6.914626229662E+01 6.095199312056E-01 -5.089055895474E-01 3.409979488193E+01 5.709170057618E+01 -2.004023285838E+00 8.165274443905E+01 -1.089386604276E+00 -4.042493434952E-01 -9.892035858261E+01 2.838780327324E+03
 1.142400436437E-01 8.121831851459E-01 3.945473753656E+00 8.553724883499E-03 9.904098350244E-01 4.925592655280E+00 -8.063268319794E-02 -8.647382286520E-02 -9.974110715809E+00 2.735376068092E+01 2.791833977929E+01 -8.437341302059E+01 -7.184151449137E+00 2.566892258416E+01 -7.838616210541E+01 3.960492771766E-02 -6.895264592844E-01 2.621008405492E-01 2.605944222859E+00 4.518159015902E-01 1.121285333008E+01 -9.233862446805E-01 -1.734563302408E+00 8.635351732176E+00 -4.395802954084E+00 3.403116844579E-02 1.035507113265E+01 -2.221511282279E+01 -1.018217519398E+02 1.871784726780E+02
 5.656603615623E-02 4.372696773851E+00 3.092894011749E-01 -7.490955470192E-01 5.108579209838E+00 1.391832729197E-01 5.597541906040E-01 1.367782047551E+00 -2.842526871634E-02 -3.661302026821E-01 -1.490471210520E-01 -7.536938703214E-02 -4.135661554160E-01 1.791790797114E+00 2.232799450324E-01 1.395178278600E-01 -5.000419830544E+00 5.635000774094E-01 -6.821884178611E-01 5.327674325865E-01 -1.271595714064E-02 -4.915856783169E-02 -1.263952053908E+00 2.983230019599E-01 4.841633524594E-01 -2.113436700306E+00 -1.017627001353E-01 4.417548372252E-01 -7.116336131519E-01 -1.145949669880E-01 2.810959641423E+03
 -3.885252348427E-01 4.874107333688E-01 5.367265228608E-01 -3.165265433764E-01 1.587678920524E+00 9.130496113117E-02 -4.344597263186E-01 -7.307491846809E-01 -3.108559986181E-02 -2.448614069654E-01 7.738489966059E-01 -1.914810766705E-01 5.503491631705E-02 4.620949631953E-01 2.857369546507E-01 -1.228359978699E-03 -1.363040407819E+00 1.393134842448E+00 1.772020044938E-01 -2.889799791748E-01 -3.733338315933E-02 5.166781730933E-01 -8.499336342663E-01 7.296842741095E-03 7.234037848707E-01 -6.120629878409E-01 -2.742515747997E-01 -1.878642103265E-01 1.664913142603E-01 8.635335875481E-03 3.051901933904E+00 2.793471917919E+03
 -2.105143337650E-02 1.196096123090E+00 -3.063633686015E-01 -2.708308916735E-01 2.323762375462E+00 -6.742675620072E-01 1.843912879503E-01 1.465787827184E-01 -5.858869478294E-02 -3.289855820511E-01 -1.092894156981E-02 3.173742357358E-01 -2.876680326356E-01 5.942145630494E-01 -3.836094926362E-01 2.664391133446E-01 -1.979035852087E+00 5.259122647193E+00 -1.779581810055E-01 1.889853785333E-01 -9.747771708706E-02 4.282307525504E-02 -6.398595170451E-01 -3.448649616982E-01 2.825296020114E-01 -5.843807422292E-01 6.472200020199E-01 4.165815309792E-01 -1.466873578213E-01 1.008133842427E-01 2.533489593447E+01 -1.021467374005E+02 1.982175538245E+02
 8.488421710197E-01 -1.437812946166E+00 -3.915128963860E-01 -2.374055043863E-01 -4.193714452307E-01 -2.462097445459E-01 -5.516946704298E-02 1.298476146807E-01 1.994297195041E-02 -7.069431153776E-02 -3.874997114977E-01 1.725196092129E-01 8.316229495876E-02 -7.300866710785E-03 -2.164838543123E-01 1.385148990254E-01 8.891084707977E-01 -6.797662318930E-01 -1.739378181329E-01 5.733246991248E-01 -1.400527915673E-01 1.113309505338E-01 3.806192831838E-01 -2.427334603854E-02 3.531772967066E-01 9.407976708806E-03 3.684243613678E-01 2.554478742479E-02 1.145045405666E-01 -5.173648684265E-02 4.144039234080E+01 7.148346788365E+01 -2.841124332532E+00 2.783307245539E+03
 3.525632601752E-01 -1.129415923449E+01 4.413001266152E-01 2.499038310682E+00 -1.363905106624E+01 2.490563944201E-01 -4.848687850260E-01 -1.617571590640E+00 -1.528785721071E-02 1.229775581575E+00 -1.080163166806E+00 2.619879750317E-01 8.717522435312E-01 -4.632989256111E+00 -6.145081189063E-01 -7.241464514797E-01 1.408587619203E+01 1.036018183854E-01 1.067036407801E+00 -3.213925024222E-01 1.311958502650E-01 -5.971399801385E-01 4.210884093704E+00 -8.682401251654E-01 -2.244258846951E+00 5.561641355898E+00 2.906729845856E-01 -7.237076883249E-01 1.271655709525E+00 1.931501168493E-01 3.098824355115E-01 -1.208576279117E+00 1.234248216284E+00 2.808795062964E+02 2.848923115953E+03
 -3.260466610251E-01 1.184257613441E+00 -5.759798446024E-01 -1.576536933636E-01 1.161984865442E+00 -8.221324485036E-02 2.262859663555E-01 1.099469371733E-01 -4.393466443039E-02 -2.716656712229E-02 1.924982303305E-01 2.100142241444E-01 -7.489521663946E-02 3.893977788641E-01 -1.027842222050E-01 -3.251573051753E-03 -1.312557736590E+00 8.454836225602E-01 6.230854503787E-02 -1.841938680855E-01 7.596829116742E-01 -1.609058742856E-02 -5.369712082519E-01 -2.219496063191E-01 -2.873594178965E-01 -2.398992307923E-01 6.733638077034E-02 -6.537736702496E-02 -2.237432780199E-01 4.952706932079E-01 -2.746458338193E-02 1.032994993150E+00 1.119850436553E+01 1.694195168265E+01 -1.123648197388E+02 1.551406785225E+02
 -1.689358624320E+01 -3.955115109623E+01 4.757320320949E+00 3.901019883719E+01 -1.999917873079E+00 1.472561905446E+00 -1.040664182769E-02 1.466100300962E+00 2.012108221608E-02 5.025502986790E-01 -1.495386008148E+00 -1.545580208301E-01 5.184828620328E-01 7.984663357626E-03 3.853323638907E-01 -1.247379235306E+03 -4.319068823112E+02 -1.251314327705E+00 -6.318920145465E-01 2.517068488427E+00 -8.806516944268E-02 3.641812278485E-01 1.554201969506E+00 -4.513025598173E-01 4.766566788456E-01 5.632584553028E-02 -2.752409692422E-01 -6.211866270076E-01 -8.848732507080E-02 9.284687149495E-02 -2.052055430091E+01 3.499443987163E+01 -3.229036937044E+00 -8.879801219650E-01 1.735214439046E-01 2.848346247749E-01 2.775693051551E+03
 4.144550910459E+01 1.165616438922E+01 4.420697710558E-01 -6.024361820248E+01 -4.320770153022E+01 -1.741265721783E+00 -2.094452005890E+00 -5.689246438795E+00 -1.740043091509E-03 3.435213546001E+00 -4.391408226380E+00 5.634576465904E-01 3.830741049454E+00 -1.465715091942E+01 -1.019124575268E+00 -4.432341084465E+02 -6.629853008590E+02 2.650833401348E+01 2.999753129976E+00 2.620495518151E+00 -3.777606073270E-02 6.793105263387E-01 1.424039534314E+01 -2.373993199350E+00 -4.533394118361E+00 1.757300006338E+01 3.485739021035E-02 -3.376086011150E+00 4.919860096794E+00 6.585564278146E-01 -2.676678379672E+01 5.729549185442E+01 -3.350359494379E+00 -1.275308270451E+00 -1.304532500373E+01 1.121185595101E+00 3.024289536993E+01 2.737925183424E+03
 -5.309029058992E+00 -8.509365796985E-01 1.151023459274E+01 4.447401634349E+00 1.980447731577E+00 9.936908886545E+00 -6.774566178820E-01 6.310159218094E-01 2.533521586025E-01 -4.069475519451E-01 -1.374272301672E+00 -4.189911859076E-01 3.481709985535E-01 5.001738147037E-02 4.934902867717E-01 -3.219385966453E+00 1.518302343599E+01 -8.491509833681E+01 5.433685315511E-01 9.211995018590E-01 3.750147569254E+00 1.864288481613E+00 2.869628592212E-01 5.228565445114E+00 -5.030690542926E-01 -6.178354728601E-01 -8.244356267842E-01 -6.967085788156E-01 -5.869602247289E-02 -3.386268001946E-01 -2.111542749739E+00 -1.802820486214E+00 8.084948513376E+00 -9.932419696479E-01 -1.670309557736E-01 -8.877898689808E-01 9.734648270144E+01 -1.626472591999E+02 2.140722935878E+02
 1.742666947183E+00 -6.120768655791E-01 4.802930037624E-01 -1.899779791406E+01 -3.095121315985E+01 1.516996402821E+00 4.299387764967E-01 6.690722342566E-01 1.022262734260E-01 5.335451503003E-02 -4.808200726382E-01 3.131226643697E-02 1.747528830175E-01 2.292883703629E-01 2.015070893896E-01 2.276083750581E-01 7.898741785555E-01 -2.530665812877E+00 -2.682281843264E-01 5.835001042281E-01 5.663565063293E-01 1.682001964295E-01 2.553288400367E-01 4.148740887757E-01 1.038403230623E-01 -2.510949490760E-01 -3.877855897491E-01 -1.871639048414E-01 -1.401014698184E-01 8.586887707832E-02 3.930307747446E+01 -6.884819278016E+01 3.250042537064E+00 -2.334546566702E+01 4.072185673948E+01 -1.787397389877E+00 3.793254427075E+01 6.665976509162E+01 -4.168221855019E-01 2.775399942418E+03
 1.551824327485E+00 -2.420041554587E+00 -1.741676845116E+00 3.337879496109E+01 5.428785469595E+01 -2.693454617792E-01 3.180958586422E-01 6.816051572771E-01 7.326069088015E-02 6.231102618465E-02 -8.846066472048E-01 -1.544571247266E-01 2.177423201542E-01 -2.007772311200E-01 2.117265675558E-01 5.186292073919E-01 1.892689561688E+00 -4.279872220408E-01 -3.382875701545E-01 1.062338372481E+00 -9.311842645746E-02 1.690950618514E-01 8.583308448409E-01 4.063001933070E-01 8.804334878683E-02 1.810670401839E-01 -2.140524133560E-01 -8.562085973822E-02 2.178503322979E-02 -1.562067753031E-01 -5.788006228387E-01 8.560862820445E-01 -5.969377199067E-01 -4.186486397394E+01 7.383496684086E+01 -3.177743507177E+00 -2.199937955728E+00 -1.905478931230E+00 3.348144476256E-02 -3.476457308081E+01 2.748163693799E+03
 -1.240523276073E-02 2.218434403385E+00 -9.571456994331E-01 -2.817864164499E+00 5.540416480530E-02 7.186754554253E+00 2.950188538024E-01 3.555235061883E-01 -1.671524838141E-01 -4.260367012772E-01 -1.105033024114E-01 6.522078985692E-01 -3.571187877863E-01 1.119702510947E+00 -6.640893256131E-01 -1.621989620383E-01 -3.412495387532E+00 -6.939265394154E+00 -3.529149100742E-01 2.488742108359E-01 5.280810391392E-01 6.311683154345E-02 -5.069059672881E-01 3.421191540374E+00 1.615718575304E-01 -1.002121138103E+00 1.057639734606E+00 4.084768295826E-01 -3.193108060068E-01 5.440497972423E-01 2.018446751427E-01 -2.552664083002E-01 1.087558496046E+01 1.144591926982E+00 -1.716911921316E+00 1.401408671715E+01 1.828896817347E+00 6.346379855410E+00 6.629043936709E+00 4.122232515375E+01 -1.016517244300E+02 1.925001406175E+02
 -1.450148108988E-02 -3.615598826473E+00 6.048604599022E-01 7.445062891954E-01 -3.234426898618E+00 2.494671064408E-01 -4.811522212690E-01 -8.475271230453E-01 1.499244280177E-02 3.765946741943E-01 1.038154381546E-01 -6.703242515056E-02 3.723225836090E-01 -1.101749649972E+00 9.475766481121E-02 -2.591985384779E-01 3.636734612608E+00 3.815918023899E-01 4.662313328864E-01 -8.029026965334E-02 1.577893375938E-01 2.321965502349E-01 8.283421800773E-01 -1.630871410952E-01 -3.055512348562E-01 1.324359576125E+00 -2.599026210095E-01 -5.487617890916E-01 4.431439640457E-01 1.986880636797E-01 -1.233127862509E+03 4.337925017935E+02 -2.785053987393E+01 -5.096050558758E+02 -2.151348970827E+01 -2.924618444535E+00 9.361568557577E-02 -4.224014519745E+00 1.318780001166E+00 1.148911980995E-01 -5.768277959930E-01 8.708170669174E-01 2.840491732057E+03
 -3.627664601576E-01 1.042776471323E+01 -8.463961957714E-01 -2.293281895709E+00 1.188900260719E+01 -1.128051972707E-01 5.234211736522E-01 1.515438678245E+00 4.680009676055E-02 -1.069966904860E+00 9.043195231629E-01 -2.221239142785E-01 -8.156744973740E-01 4.037007866579E+00 5.180530316518E-01 7.550923172289E-01 -1.265329469729E+01 -1.004671518596E+00 -9.530818319178E-01 1.688349134449E-01 -9.376518592423E-03 3.981889391905E-01 -3.662074940343E+00 9.237114836049E-01 1.851225835424E+00 -4.837132169373E+00 -2.649151188274E-01 7.072405113406E-01 -1.168553053144E+00 -1.883859531639E-01 4.347469549645E+02 -7.280689059900E+02 2.911913897620E+01 -3.061584329041E+01 -1.534717849523E+03 6.149994646514E+01 -7.950664714207E-02 1.194607965723E+01 1.382070920401E-01 -5.552466362834E-01 2.993719442659E-01 -1.639262781559E+00 3.568931904308E+01 2.886097794146E+03
 -7.041283134665E-02 -7.164975324928E-01 1.565327339410E-01 -1.221375793955E-01 -4.104650965989E-01 -7.883526974070E-01 -2.152479963862E-01 -1.822293433144E-02 -8.142538184524E-02 -1.362063383514E-01 -2.798915310725E-01 2.754025405566E-01 -1.110240999226E-01 -8.410683291569E-02 -5.590443504650E-01 -2.777426283035E-02 2.982729423357E-01 4.615412273691E-01 -1.382832136809E-01 2.513600607491E-01 -7.956324752679E-01 -2.025213779060E-01 3.026488244297E-01 -4.431891185395E-01 2.566163631124E-01 4.721571306841E-02 9.477789801329E-01 3.289074835939E-01 1.151948470104E-01 -2.443460597757E-01 -2.791755361809E+01 2.941765448134E+01 -8.566718139585E+01 -2.565948146543E+00 6.171196504866E+01 -8.001079587646E+01 -4.068742003069E-02 -5.058243680278E-01 4.117951847910E+00 -2.361372676699E-01 -5.368526405941E-01 -9.961827407380E+00 1.969841954239E+01 -1.138035551320E+02 1.895463658194E+02
 -1.119540988934E+00 -4.754918337121E+00 2.995976170008E-01 1.374997589288E+00 -6.302981570757E+00 -1.630925981328E+00 -8.606258048375E-01 -1.593359430220E+00 -1.295384489378E-01 4.478916132619E-01 5.690902125248E-02 2.722557096546E-01 3.078832595650E-01 -2.240616302241E+00 -6.814663091661E-01 -2.030991863615E+01 4.027962550753E+01 -2.103567055028E+00 6.595010428672E-01 -7.959014348070E-01 -6.479775116050E-01 -4.133789925465E-01 1.689612961193E+00 -9.987641724521E-01 -7.417545000952E-01 2.626678832840E+00 8.078139672134E-01 -1.705273319182E-01 8.833430798842E-01 -4.341082755191E-02 -1.221090154418E+03 -4.254073009233E+02 6.614508512175E+00 4.903175919341E-01 -2.285161161692E+00 9.526132106069E-02 -1.164930130162E+03 4.187527765990E+02 -6.449809957036E+01 -4.718415608399E+02 -1.249692480059E+01 -8.300428034375E+00 -2.068918094073E+01 -3.174372335869E+01 1.427544734170E+00 2.744851201818E+03
 -2.188364931838E+00 4.559907173217E+00 1.079660871491E+00 -5.208927642688E-01 1.144024610624E+00 -6.157541414357E-01 -2.597049019925E-01 -3.440399167366E-01 2.253156623543E-02 -8.910164505446E-02 8.512663272334E-01 2.492593510306E-01 -4.708599700376E-01 4.341060426615E-01 -4.876944755213E-01 -3.228711537457E+01 5.301228274315E+01 -8.192434658622E+00 3.090835983583E-01 -1.305784651641E+00 -1.108074850856E-01 -6.025870934198E-01 -9.280927193730E-01 2.741576771521E-01 -2.027411588229E-01 -4.939640982053E-01 6.080449231187E-01 3.660983561668E-01 -2.580432317496E-01 -6.743893258557E-05 -4.279967311369E+02 -7.124046211588E+02 2.666157053620E+01 3.660969443560E-01 -1.176319093916E-01 -6.187713738611E-01 4.271213681042E+02 -7.090785195947E+02 5.808256826420E+01 -3.001994108890E+00 -1.494293467352E+03 5.249022685294E+01 3.488354884804E+01 5.910655006021E+01 -1.281140651051E+00 6.473029825632E+00 2.802772037407E+03
 3.041760002126E-01 -1.038471158465E+00 3.681663533997E+00 -4.017255285390E-01 -1.214076103216E+00 -7.419540816144E+00 2.035915472765E-01 -1.959828256480E-01 4.800705966409E-02 8.936197507783E-02 4.797928431753E-01 -4.353812700535E-01 3.349537553283E-01 -2.436824927250E-01 1.024303661298E+00 1.585484847356E+00 1.241688933794E+00 8.697272535408E+00 5.790176608925E-01 -1.630703761194E-01 2.122100413039E+00 2.885545872425E-01 -3.355424752074E-01 5.310594350817E-01 -6.884996673826E-01 5.925043464551E-01 -1.782340154294E+00 -8.175838058240E-01 -2.233368805423E-01 7.199555583096E-01 2.587653722668E+00 2.081042232196E+01 -8.366197386398E+01 2.460659282233E+00 -1.126467901673E+00 -1.005754631656E+01 -6.152727725937E+01 5.264402768877E+01 -8.539903601354E+01 -8.044398083718E+00 5.953462422841E+01 -8.519410462883E+01 -2.106301474165E+00 7.731390490223E-01 8.813998449707E+00 6.663369108126E+01 -1.303415822058E+02 2.007912850872E+02
 -1.263538295398E+00 5.614560842139E+00 2.664765647714E-01 -9.333617933256E-01 5.499192169903E+00 1.376210923325E-01 2.273558844174E-02 1.780959894000E-01 -4.290481293669E-02 -4.883886628085E-01 9.468501174105E-01 -1.982003304008E-01 -4.510362365437E-01 1.741208049259E+00 2.946011580641E-01 1.911459413688E-01 -6.388018000311E+00 5.787659551756E-01 -1.470300938521E-01 -5.088907236285E-01 -2.615770120438E-02 1.535665014939E-01 -2.040691789855E+00 2.751619849591E-01 6.915222129587E-01 -2.088565072274E+00 -2.112222938629E-01 3.141553810102E-01 -4.878833856313E-01 -4.737752838478E-02 -5.878409583640E-01 -6.162650035215E-01 1.537586022267E-01 -1.506900097317E+03 -5.265102856107E+02 6.847482212279E+00 1.315140687313E+00 6.008659686198E+00 7.312630398960E-01 -1.277893136319E+03 4.342918099663E+02 -3.350287975239E+01 4.949816949980E+01 -2.621831803235E+00 5.418942721657E-01 3.947934164447E+01 -9.174669959536E-01 -1.744597682313E+00 3.074025576882E+03
 2.528796323597E-02 2.495534213471E-01 1.549429556251E-01 2.578713915686E-01 3.883438717306E-01 6.288804874685E-01 2.672078419370E-01 2.876088343082E-01 2.760503061437E-02 1.617211851644E-01 9.089701612937E-04 -1.737449987754E-01 5.522961011723E-02 8.517357985823E-02 3.671545242378E-01 -5.998366013346E-02 3.146197897087E-02 5.391631286897E-01 6.209903168922E-02 4.856555007100E-02 3.983731601508E-01 1.118076430608E-01 -1.461221990723E-01 1.299082370221E-01 -3.842079394799E-01 -3.820049555540E-02 -6.117563677974E-01 -2.288170818916E-01 -2.040329336221E-01 2.228567596520E-01 -1.479134690381E-01 3.300654626785E-01 -4.394446408728E-01 -5.385236876784E+02 -8.621753000019E+02 2.825646406382E+01 -1.393357012862E-01 3.499790611255E-01 9.180138254227E-01 4.184162040002E+02 -7.235775902200E+02 3.203614252795E+01 -8.512070549615E+01 1.958579257573E+00 -9.185660256577E-01 7.192026414972E+01 -1.158054010113E-01 -1.773420813265E-02 9.169400265903E+01 2.531753974639E+03
 1.061281107061E-01 -4.974267217800E-01 6.823117587678E-01 4.695172713180E-02 -4.301379649846E-01 4.346820698165E+00 -3.156808404875E-01 -8.359813124226E-02 2.329337678702E-02 -4.698527586040E-02 -1.195733855511E-01 -1.580773848786E-01 7.497907968913E-03 -1.990274527112E-01 -5.389875848208E-02 -1.355395420816E-02 3.779567794438E-01 -8.436057312110E-01 -1.535576880437E-01 7.595114663213E-02 -1.108101673601E+00 -1.230358500063E-01 4.060492354907E-01 1.573485111457E-01 5.053310317152E-01 -5.203236361208E-02 2.328785290741E-01 2.054777037477E-01 2.235139203543E-01 -6.513233728699E-01 4.840282118427E-01 -3.733123068129E-01 -1.083365799146E+01 7.264038270020E+00 2.818415655442E+01 -7.197730194927E+01 -4.861321100013E-01 -2.166022102007E-01 5.438822058249E+00 -3.252614397771E+01 3.141363383821E+01 -7.953364866576E+01 3.907835024601E+00 1.691702700278E-01 1.107127072886E+01 -2.159931770216E+00 5.594043759112E-01 9.081718935048E+00 2.939507588090E+01 -9.860902701590E+01 1.562005099318E+02
 -1.700484911124E-01 -1.456550635966E+01 -1.184217781088E+00 -1.219347375505E+03 4.330057489744E+02 -3.471037356276E+01 -9.109851481274E-01 -2.161929327807E+00 -1.138683406573E-01 1.325748121171E+00 -1.222625124530E+00 1.949817482288E-01 1.052643638291E+00 -5.500426865532E+00 -7.365322688273E-01 4.028355789687E+01 1.610537686812E+01 3.070060667064E+00 1.365571558225E+00 2.236989842566E-02 -6.753536351167E-02 -2.073738735313E+01 4.077775829054E+01 -3.381180054040E+00 -2.492372517981E+00 6.626976757384E+00 5.599349773389E-01 -9.304112272175E-01 1.564044667596E+00 2.418120146242E-01 2.112476226693E+00 4.486218546013E-01 1.122410843760E-01 1.075905893194E-02 -5.267069626386E+00 2.620111442900E-01 3.512726321097E-01 -1.669271005735E+01 -5.327012628626E-01 -1.141607664482E+03 -3.881510346480E+02 -8.417519045786E-01 -1.277698721122E+00 4.567860951301E+00 3.886545406516E-02 3.394535450272E+01 6.658397033574E-01 1.137059273358E+00 -1.552979123558E+01 -3.217377968866E+01 5.809174244598E-01 2.724217320623E+03
 -2.072235540318E+00 1.578423742319E+01 4.978103972874E-01 4.558313868795E+02 -7.218065804024E+02 3.961982700338E+01 4.025849917138E-01 1.379925318245E+00 -1.439839399517E-01 -1.620746385789E+00 1.994894060946E+00 1.593415914330E-01 -1.305352909634E+00 5.495831227098E+00 5.895254409064E-01 6.745603543629E+01 -1.893376131455E+01 2.330656615170E+00 -9.450425126386E-01 -5.952963822527E-01 -2.538865190429E-01 -3.243204570504E+01 5.276665829959E+01 -3.548985886910E+00 2.368863601947E+00 -6.561359106035E+00 -2.981296014236E-01 1.092076813896E+00 -1.644171395801E+00 -2.482034535325E-01 -1.504430266382E+00 -1.010764883324E+00 -4.807903061629E-01 2.627023736951E-01 5.238858457679E+00 -2.800159151974E-01 1.837400400772E+00 1.717625500707E+01 -8.337326912793E-01 -3.859811988312E+02 -6.639787248521E+02 1.636775563741E+01 1.213881489409E+00 -4.598839717200E+00 1.296523747287E-01 -6.315898009728E+01 -4.535518134315E-01 -1.614254119127E+00 2.896820798439E+01 5.769630233911E+01 -9.841603012006E-01 -2.243580254057E+00 2.803212702081E+03
 3.223593972758E-01 -1.327807793697E+00 4.135870209284E+00 -3.544343599520E+01 4.186443710121E+01 -8.380952750427E+01 4.394559068446E-02 -3.641315659249E-01 1.768978211208E-02 -1.888248879718E-01 4.380709717820E-01 4.588214894933E+00 5.274426818730E-02 -5.224462559378E-01 1.554563423988E-01 -4.393485872584E+00 1.859702214636E+00 9.226046461704E+00 6.667928962346E-01 2.914434076170E-01 8.980092294935E-01 1.941072439225E+00 -4.052442621743E+00 9.626639652460E+00 -5.843747688300E-01 9.500216135991E-01 -4.371734040630E-01 -3.251003804780E-01 -2.943301491542E-01 5.001434262418E-01 4.693265296603E-01 1.304157809836E-01 4.466487298900E+00 -2.322283016654E-01 -2.588702913077E-01 5.958767281550E+00 -8.549335703696E-01 -2.244019799037E+00 -9.181051274953E+00 -1.205787281947E+00 1.640780872025E+01 -8.061363635341E+01 2.752356805020E-02 3.060584744083E-01 -2.614720218123E-01 2.347005970697E+00 1.564120608106E+00 8.734394558522E+00 -1.123660701833E+00 -1.962325161786E+00 9.191553782265E+00 3.996614032735E+01 -1.244497817640E+02 1.927206461009E+02