#BIOSYM hessian 1
@Type: Hessian Update
@Units
 distance: 	A
 energy: 	Kcal/Mol
#header
@natom 69

#label
C1      C2      C3      C4      C5      C6      C7      C8      C9      C10     C11     C12     C13     C14     C15     C16     C17     C18     C19     C20     C21     C22     C23     C24     C25     C26     C27     C28     C29     C30     C31     C32     C33     C34     C35     C36     C37     C38     C39     C40     C41     C42     C43     C44     C45     C46     C47     C48     H49     H50     H51     H52     H53     H54     H55     H56     H57     H58     H59     H60     H61     H62     H63     O64     H65     H66     O67     H68     H69

#element
C  C  C  C  C  C  C  C  C  C  C  C  C  C  C  C  C  C  C  C  C  C  C  C  C  C  C  C  C  C  C  C  C  C  C  C  C  C  C  C  C  C  C  C  C  C  C  C  H  H  H  H  H  H  H  H  H  H  H  H  H  H  H  O  H  H  O  H  H 

#matrix
207
 2.795564084319E+03
 -1.915063514176E+01 2.808128626399E+03
 1.940862466545E+01 -2.250217130810E+01 1.933088944399E+02
 3.996985706452E+01 6.636844656824E+01 -1.123527089630E-01 2.803670299027E+03
 -7.668552147324E-01 -4.910322331752E-01 9.250325585633E-02 -3.034162061596E+01 2.767014442336E+03
 1.069130007879E-01 9.082689681234E-01 9.186948317023E+00 1.933146928252E+01 -1.954420146971E+01 1.921778172323E+02
 -1.920882166175E+01 3.476144965193E+01 -3.067368963306E-01 7.728488352539E-02 -1.044934244955E-02 8.499581592043E-02 2.828472569800E+03
 -3.286840957648E+01 5.950168269501E+01 -6.928200203830E-01 -1.362759295256E-01 1.291092323777E-01 1.235121160179E-01 3.055663244424E+01 2.762328760189E+03
 -6.219979440850E-02 -4.512289892642E-02 9.407793568617E+00 -9.265262683289E-02 -3.569859850989E-02 4.739451381706E-01 1.576373508794E+01 -2.200350860351E+01 1.902449578002E+02
 3.701786045817E+01 -6.704730926894E+01 5.309266699872E-01 -1.936657045061E+01 3.505862460157E+01 -5.425548453065E-01 4.047365001010E+01 6.912193928645E+01 -4.427989812561E-01 2.795918639534E+03
 -4.364984769461E-01 7.771297152209E-01 3.154954087378E-01 -3.243467786461E+01 5.887471971325E+01 -5.383976731857E-01 -5.952489421478E-01 -9.948058109988E-01 2.576112860829E-01 1.274466512024E+01 2.812730802921E+03
 7.891124118801E-02 -2.160170495278E-01 8.805483599714E+00 6.559887107086E-02 -3.048341458767E-01 8.924292851179E+00 3.086992040424E-01 6.830046736615E-01 9.938234305228E+00 1.536453321220E+01 -2.158255716409E+01 1.953366872832E+02
 -1.734375176053E-01 2.612916136781E-01 8.567868433078E-02 2.355396368508E-01 -2.198367911522E-01 2.362376752742E-01 5.020576172249E+01 -8.339661529252E+01 1.101913292537E+00 -2.138640232553E+01 3.709512682608E+01 -4.805232677941E-01 3.161987343231E+03
 3.164357555326E-01 -5.730834252377E-01 4.815870612154E-01 -1.054149587636E-01 4.718640119981E-01 8.469908138228E-01 -1.107033064286E+00 1.033279861533E+00 4.926701353073E-01 -3.391999149155E+01 5.930681860443E+01 -6.102337676805E-01 1.605535290158E+02 3.348837560708E+03
 -3.182346836022E-01 6.161375090927E-01 1.403884502137E+00 -2.374029388294E-01 -7.161589850686E-02 1.884296003716E+00 3.670513173810E-01 1.995751107880E-02 1.257418993948E+01 -1.968966426597E-01 -3.707351801865E-02 1.021057684713E+01 1.525011154436E+01 -2.550016550297E+01 1.972540193121E+02
 -1.226549003854E+03 4.485925784158E+02 -1.260175200006E+01 -4.627389126455E+02 -1.485195991698E+01 -2.628880499565E+00 7.748798221263E-02 -4.984311181685E-02 9.873179101972E-02 -6.042066413343E-02 -6.122382301438E-02 2.074203548596E-01 1.923033607891E-01 1.054795580593E-02 2.857175689162E-01 2.812488515329E+03
 4.437891159888E+02 -7.431538573874E+02 8.517929231099E+00 -1.351728311474E+01 -1.424603840122E+03 9.281877047894E+00 7.631132512713E-02 2.867504765679E-02 -1.045695260297E-01 -1.133218935845E-01 6.792230601267E-02 -1.076980170114E-01 -5.608091532542E-02 5.319133006855E-01 -4.246179481265E-01 -4.592768467890E+00 2.763491704061E+03
 -1.222009628620E+01 8.102327802406E+00 -8.346453661119E+01 -3.453373358074E+00 9.819941653975E+00 -8.085086304457E+01 4.041078908967E-02 -1.084333828271E-02 4.728776879353E+00 -7.693226480927E-02 -2.854128284181E-01 -8.913449919976E+00 -2.365597234461E-02 -3.729072666252E-01 -2.420713812375E-01 2.553137631183E+01 -1.669757601779E+01 1.919298663788E+02
 -1.208400497038E+03 -4.109002500925E+02 -4.363633736457E+00 4.838994951856E-03 -2.963618507673E-02 -3.832938536885E-02 -1.243292347642E+03 4.446800917371E+02 -1.083349408431E+01 -4.712122020479E+02 -1.369507180225E+01 -2.307750523333E+00 8.148669971093E-03 1.075861059822E-01 9.906778508440E-02 -1.932953390961E+01 -3.247345922365E+01 2.766151758050E-02 2.808130969273E+03
 -4.096129585146E+02 -6.931075676262E+02 2.130462707740E+00 1.681621964003E-01 -1.952971766518E-01 -2.631693078058E-01 4.540757802389E+02 -7.411594249916E+02 8.058079157250E+00 -1.697260562412E+01 -1.459879090406E+03 1.110396868745E+01 -1.328697844174E-01 2.176771404799E-01 -5.642486360296E-01 3.509916270140E+01 5.872785140309E+01 1.491095147330E-01 -2.128395222039E+01 2.773541876091E+03
 -4.827696626196E+00 1.940998539949E+00 -8.129292814530E+01 1.418098560568E-01 -6.995640845061E-02 -8.698610936979E+00 -1.041796708205E+01 7.800532446833E+00 -8.355067882756E+01 -2.208943341429E+00 1.161096205513E+01 -8.259531226097E+01 -3.155685553641E-03 -1.358744083225E-01 -1.009954832390E+01 -5.459818824762E-01 -4.843457841783E-01 8.484502086376E+00 1.715197325731E+01 -2.093636178521E+01 1.926312974402E+02
 6.899510144349E-02 -4.767860599052E-02 9.776636363353E-02 -1.223636406994E+03 -4.156872526354E+02 -4.575193070317E+00 -9.851609584680E-02 8.152587766896E-03 1.298353192229E-01 -1.208309869881E+03 4.382092878197E+02 -1.041891603204E+01 -5.158840847168E-02 -6.413006114015E-01 2.031909686145E-01 3.667105625977E+01 -3.811321859162E-01 4.519767420062E-01 4.018428304237E+01 -5.422531057131E-01 -7.364458031188E-03 2.794734121503E+03
 -1.721688863063E-01 2.483335747566E-01 -3.992440178825E-01 -4.196235199154E+02 -6.993212276922E+02 1.857455442302E+00 4.841148612244E-02 5.098301438447E-02 -1.732839992884E-01 4.414335720757E+02 -7.347660630871E+02 7.855451087855E+00 -1.158929429510E-01 7.091199385284E-01 -4.170243854762E-01 -6.642115126764E+01 7.449953628249E-01 -4.760498027536E-01 6.727952518867E+01 -1.025528515131E+00 4.431960991860E-01 9.661336474953E-02 2.791298891739E+03
 2.816191508988E-01 -3.645173967868E-01 -9.466897100505E+00 -4.934251236050E+00 2.188875422241E+00 -8.254863844833E+01 -1.142244773399E-01 -1.299591197713E-01 4.069475287760E+00 -1.030709481544E+01 7.701924446870E+00 -8.252566738187E+01 -4.985487065643E-02 -6.532189128093E-01 3.274822575830E+00 5.886212305910E-01 2.243691311642E-01 9.009050228372E+00 -3.963765590380E-01 2.997386807335E-01 8.851761339180E+00 1.715730937471E+01 -2.118868714254E+01 1.940187583605E+02
 8.479882271588E-02 -7.341515648279E-02 -9.937840962177E-02 -1.997125881345E-01 1.301973664454E-01 -1.514386335876E-01 -1.258023802669E+03 -4.495293106838E+02 -3.516501853818E+00 -1.446565348130E-01 2.164430921920E-02 -5.893229981818E-02 -6.022292760998E+02 -1.464007336463E+00 -3.135398415740E+00 -1.013269054672E-01 -1.553834435025E-02 1.078226422650E-02 -2.177819000299E+01 -3.718481632386E+01 1.149984786237E-01 8.838502133168E-02 3.028297868735E-02 3.357050161676E-02 2.639155947239E+03
 -1.901533980211E-01 3.577643601497E-01 -1.539342025878E-01 1.380433463809E-01 -2.941175936951E-01 -3.923632834103E-01 -4.644044966298E+02 -7.757286607469E+02 2.979271878444E+00 -2.458813190098E-01 1.633499953721E-01 -1.309448874573E-01 -2.240058387160E+01 -1.789980186512E+03 1.460613552682E+01 5.863330103298E-02 -2.532925831952E-01 1.932752765497E-01 3.602335830213E+01 6.174300195087E+01 4.737366220715E-02 2.677412121970E-01 -3.499123552571E-01 3.798436467230E-01 2.002205320119E+02 3.003705082748E+03
 1.756693758899E-01 -4.265595228690E-01 4.050677929581E+00 8.088860889670E-02 1.313408076881E-01 -7.483900718529E-01 -3.484270682658E+00 2.897969360206E+00 -8.034530811040E+01 2.984903074678E-01 -3.104736170820E-01 -1.061129694163E+01 -2.893875568848E+00 1.489678323183E+01 -9.574684507541E+01 -2.503575111428E-01 2.628854502736E-01 -9.552755527668E-02 -3.957175250298E-01 -2.619860671048E-01 1.001336011281E+01 -2.196445351727E-01 3.764694841248E-01 8.841852831261E-01 1.321821464767E+01 -2.358710487158E+01 1.747636033540E+02
 2.813044163624E-01 -3.946374688031E-01 2.461847199276E-01 -1.191494502880E-01 3.593722192001E-01 3.225273949865E-01 -2.781471570390E-01 -1.041367395958E-01 1.642379577390E-01 -1.233987909093E+03 -4.387447616395E+02 -2.864788113656E+00 -1.224207892307E+03 4.354385652146E+02 -9.240709302499E+00 -1.376134973211E-02 3.789906506054E-01 -1.310259316393E-01 3.974719730174E+01 -3.445510381925E-01 3.392861382358E-01 -2.090796581914E+01 -3.382382075402E+01 -1.747020607104E-01 5.055478423908E+01 9.911351545836E-02 -5.549839223276E-02 2.822512670043E+03
 -3.932301596192E-01 6.179649634729E-01 -3.427956407063E-01 3.444768448958E-01 -5.759376007667E-01 -4.163301864475E-01 2.200273864789E-01 1.569483541882E-01 -5.279624756839E-01 -4.392108644402E+02 -7.348142675032E+02 2.750036506545E+00 4.407513068692E+02 -7.970465837340E+02 7.494316164943E+00 1.410941680018E-01 -4.208776597406E-01 2.363607082013E-01 -6.857661334520E+01 6.837792849108E-01 -3.510274649735E-01 3.575548971328E+01 5.867336653728E+01 3.981585789215E-01 8.115100953415E+01 -2.056119460851E+00 1.092427956248E+00 -1.692956835483E+00 2.904957007400E+03
 6.887487916848E-02 -1.373758054141E-01 4.319602183906E+00 7.374489636084E-03 5.778247718621E-02 4.393327564610E+00 -6.688297826160E-02 -1.610899871060E-01 -1.090973327469E+01 -3.048754688920E+00 2.524874573123E+00 -8.700055733110E+01 -9.502437819684E+00 7.795027923660E+00 -8.695812098142E+01 -7.677647335997E-02 7.785487477742E-02 -1.223122903355E-01 8.106740653285E-01 1.937426974149E-01 9.705157465231E+00 -5.606476048043E-01 -2.987023451551E-01 9.449356875575E+00 -5.086848514572E-01 2.569471922597E-01 1.144199111093E+01 1.456409006532E+01 -2.141473592645E+01 1.991221700358E+02
 1.221949447972E-01 -1.726840978691E-01 -1.588612757093E-01 -6.345753585617E-01 2.062457644091E-01 -3.620481620144E-01 4.530421534540E-01 -7.887287892967E-02 -1.390792749824E-01 -6.040963107385E-01 8.289637672379E-02 3.014370853935E-02 5.224042703199E-01 1.801552224154E+00 -1.909022774005E-01 -3.694137533832E-01 -2.139677540487E-01 9.476854869699E-02 -1.169292199771E-01 1.035547169695E-01 -6.905369900200E-02 5.534874289812E-01 -2.068057823759E-01 2.105264810724E-01 -6.294501549112E-01 -7.228476353352E-01 1.281802899378E-01 9.587159171032E-01 -8.134211015518E-01 9.901803343327E-02 2.817521119585E+03
 -7.034624329539E-01 1.568549268549E+00 -1.467541022164E-01 1.705807697141E+00 -1.220305454333E+00 1.610423698349E-01 -7.973564010459E-01 2.876829124590E-01 -7.070005995109E-01 7.425616758822E-01 2.994009941486E-01 -5.116166884513E-01 -1.361957046394E+00 -1.600173521651E+00 -1.171796488235E+00 1.363232538549E+00 1.317570608791E-01 -3.665437020142E-01 -5.707694071317E-02 -3.794205333989E-01 5.742663512471E-01 -8.239291789406E-01 -8.562856333455E-02 4.279474205396E-01 7.782017215578E-01 2.647540009420E-01 1.509602644405E+00 -1.022135997170E+00 1.719831566221E-01 6.452937708454E-01 -3.789967113599E+01 2.772788996857E+03
 -5.569595264573E-02 2.255224144246E-01 1.195439783514E+00 4.988983890198E-01 1.412594008549E-01 1.632445701371E+00 -2.179383833317E-01 -4.225896025914E-02 2.676253946474E-01 3.213853436154E-01 8.809473349492E-03 -6.690162665342E-02 -2.494260802538E-01 -9.915543507173E-01 1.653145120719E+00 1.869507374825E-01 -1.421418689569E-01 3.254280869997E+00 9.315176219982E-02 -8.785403103772E-02 5.027841793703E-01 -2.953528828653E-01 6.801230305750E-02 -1.147694406126E+00 2.304179343595E-01 5.082316772527E-01 -1.078428381959E-01 -4.884361012137E-01 5.573814093333E-01 2.745018930498E-02 5.364006706752E+01 -2.620127345818E+01 1.953296498132E+02
 -1.660355268981E+00 2.930419497428E+00 -1.717983948606E+00 1.318344622132E+00 -2.462095246608E+00 -2.636564269235E+00 1.138680465229E+00 6.003586008557E-01 -1.727748710986E+00 -1.948712586122E+00 1.260524442685E+00 -8.042749237442E-01 -6.991960682255E-01 9.235389960940E+00 -4.444662795674E+00 6.181793859987E-01 -1.983401960797E+00 9.836148714892E-01 -3.698683547971E-01 -1.069972375847E+00 2.895248275499E-01 1.911234346858E+00 -2.669281888030E+00 2.720927718610E+00 -5.266933070122E-01 -4.520376612799E+00 3.141281614074E+00 6.127535442777E+00 -7.155483657608E+00 1.487652858589E+00 4.226627540291E+01 7.941851964402E+01 3.650867009278E+00 2.692736468761E+03
 2.342182675252E-01 -5.303131457027E-01 -4.274772182047E-01 -1.227922400133E+00 5.278670843999E-01 -1.069015002271E+00 1.072433523539E+00 -1.227683803904E-01 6.198485636698E-02 -1.188194298928E+00 1.009318959887E-01 1.999498659119E-01 9.996057524143E-01 3.833961108743E+00 -6.384558509658E-01 -9.848111483279E-01 -6.751614809692E-01 4.425047342736E-01 -9.855362853969E-02 9.526916440860E-02 -4.568603774619E-01 1.264945924483E+00 -6.682784128221E-01 3.927316735135E-01 -9.640519932062E-01 -1.442742193475E+00 -1.734318110684E-01 2.458489584365E+00 -2.030065688534E+00 -1.180734199279E-01 -5.614333315707E+00 7.106575282264E+00 8.497043697484E-01 2.481184454511E+02 2.927697828683E+03
 -1.699803750120E-01 6.635677644280E-01 7.110746771463E-01 5.054730137706E-02 -4.790951530996E-02 6.988068232080E-01 4.761919305354E-01 1.924875965944E-01 7.432482451695E-01 -5.461014482995E-01 3.131676596117E-01 2.395741678413E-01 3.589408005904E-01 2.332815279506E+00 1.761787933305E+00 -2.121597118897E-01 -9.009264946165E-01 -2.994028762610E-01 -1.759180875436E-01 -3.365818467376E-01 2.047119928716E-02 5.633283471981E-01 -5.896128279394E-01 -8.807043035646E-01 -4.446856815184E-01 -1.071949027116E+00 -1.191834489493E+00 1.308532307710E+00 -1.510537604776E+00 -2.750084127724E-01 -3.129141486611E+00 4.254973665964E+00 1.456957481330E+01 6.360628957813E+01 4.646417265813E+00 1.490080718022E+02
 -2.025480705751E+01 -3.333493432301E+01 -4.352391325433E-01 3.801959112775E+01 -8.970375923105E-01 -2.506513885245E-01 -1.204893264245E-01 1.236049400534E-01 -2.186205060125E-01 1.181390636637E-01 7.849841132867E-02 -9.202358213493E-02 -4.483183637268E-01 -6.971201192341E-02 -7.805103770168E-01 -1.242346093363E+03 -4.268941807546E+02 -1.025126167919E+01 7.624834187976E-03 -1.446583741118E-01 -9.262743346226E-02 -1.061326642083E-02 -2.116066589453E-01 2.395085658483E-01 3.267503254559E-01 -7.755589236354E-02 4.336786419036E-01 1.468028334562E-01 -3.636155355646E-01 7.848439638642E-02 -1.840330709239E+01 3.212816294777E+01 -1.097980017728E+00 -1.059979586664E+00 1.686979918411E+00 -1.255987067872E-01 2.779105457628E+03
 3.625015516281E+01 5.977970835498E+01 3.801319444797E-01 -6.797340651511E+01 1.518442440833E+00 -1.483843912548E-01 -9.006589947234E-03 -1.419280955057E-01 4.539971065620E-01 7.931059118599E-02 -1.750938009961E-01 1.933553222716E-01 4.761812244462E-01 -8.432040099424E-01 1.409095806781E+00 -4.315561468004E+02 -7.126306941449E+02 -7.922791930235E-01 2.364533809054E-02 2.084742006723E-01 -1.647003478920E-02 -1.482868017415E-01 4.090865092170E-01 -6.555623276208E-01 -2.457717443994E-01 4.965924600066E-01 -8.483784790507E-01 -7.569084783132E-01 9.930880793085E-01 -2.854132463444E-01 -3.249402319712E+01 5.848696096888E+01 5.540750302490E-01 4.222167408255E+00 -3.489898688334E-01 1.567436513270E+00 1.298544840927E+01 2.798127406241E+03
 -5.241414950086E-01 -3.283534006062E-01 1.002965348576E+01 1.028226490600E+00 1.316765337245E-01 9.513914133221E+00 1.089859373586E-01 7.489705676179E-02 3.298892900447E-01 -2.512208870052E-02 9.363657947788E-02 5.223470437074E-02 8.795292937073E-02 3.583005103966E-01 1.001398044515E+00 -1.020867597032E+01 -8.447307329259E-01 -8.270132056154E+01 -8.701523264439E-02 -1.306978075502E-01 4.633887867280E+00 3.121616814510E-02 -9.980362322377E-02 4.152421273874E+00 -9.262847218440E-02 -1.719619897649E-01 -4.965046542378E-01 1.847206915665E-01 -2.533222211454E-01 -2.256913298140E-01 -6.449807133825E-01 -9.476617664576E-02 8.979240563729E+00 -1.326023482091E+00 -2.766526459424E-02 3.367672760821E-01 3.131039670544E+01 -2.100942397703E+01 1.914615832263E+02
 3.081226442370E-01 -4.854383143425E-01 -2.070273443605E-02 -1.945611095831E+01 -3.051714465958E+01 2.582825297493E-02 2.236858153469E-01 -2.249563292653E-01 -1.943015343245E-01 -2.313622214211E-01 -1.198163396718E-01 3.017009461449E-03 4.718903852870E-01 3.799531590516E-01 -3.393843812835E-01 -4.288823242184E-01 6.025793669029E-02 1.476485779961E-01 -2.486600132671E-02 2.750160545497E-01 -4.519063532349E-03 1.271478099918E-01 2.238034101771E-01 1.733635877800E-02 -4.497592158864E-01 -1.485856394377E-02 2.231413901454E-01 1.063048858437E-01 2.581966284028E-01 1.646892457112E-01 3.688375605301E+01 -6.456246623341E+01 3.191198842371E+00 -2.268104674359E+01 3.773442291132E+01 4.541192307008E-01 4.064994788573E+01 6.547652767948E+01 2.027749786676E-01 2.810083724399E+03
 -6.653372734299E-01 1.081590970769E+00 -2.003581404003E-01 3.486016425369E+01 5.490270117928E+01 -3.802120955489E-01 1.262867425155E-02 3.689352631575E-01 -1.091328613938E-01 -1.655102838040E-01 3.850044889166E-01 -1.957818944973E-01 -5.594421979372E-01 1.536304722064E+00 -2.415194654088E-01 5.965106927768E-01 -4.454606192703E-01 3.899168058661E-01 -5.472631853636E-02 -5.149899118235E-01 9.828038301251E-02 2.694598572739E-01 -7.900978226209E-01 5.389658777469E-01 3.284478667140E-01 -9.214906390106E-01 3.084060104699E-01 1.127301879494E+00 -1.732872994219E+00 6.628600883971E-02 2.816393976780E-01 -2.150373320103E+00 -5.495111787639E-01 -4.972352505167E+01 7.480513216230E+01 1.633296434888E-01 -1.449580407468E+00 1.050206774309E+00 -4.824140068984E-01 -6.395057347092E+01 2.747423482841E+03
 -5.102739740215E-01 4.644106887232E-01 -4.283563205418E-01 -2.559010291683E-01 -1.102541152376E-01 6.962164391223E+00 -1.802991689089E-01 4.544047869093E-01 4.845755458479E-01 1.551245062186E-01 4.840978124420E-01 3.550475223566E-01 -3.136066576733E-01 1.190490434888E-01 -9.137392564510E-01 9.316930367691E-01 -2.148530266963E-01 -8.125111459718E+00 -1.163880469382E-02 -4.627410582382E-01 -6.110373212537E-01 -4.082069155533E-01 -5.516206210903E-01 4.166730167196E+00 3.533874862864E-01 -4.203180790917E-01 -8.558796928571E-01 -2.125078780489E-01 -7.205618653182E-01 -4.420981198012E-01 6.574309561808E-01 -2.469341053551E+00 8.021759181133E+00 -2.472889144664E+00 2.480368482673E+00 1.306715964161E+01 9.885488584814E-02 6.014711689400E-01 8.269847610653E+00 2.311116995652E+01 -4.857287669321E+00 1.885261302961E+02
 6.963763701579E-01 -1.048825774460E+00 1.482167558003E+00 1.776096396039E+00 4.758280267538E-01 2.776703609952E+00 -2.759719597771E+00 2.310382635752E-02 1.211106175830E+00 3.814677925605E+00 -1.042650819159E+00 3.929943517856E-01 -2.193691386833E+00 -1.406235134459E+01 1.855858968855E+00 1.448122092789E+00 2.627006581670E+00 -1.326156955611E+00 5.170331017520E-01 3.559066654994E-01 -2.439550427817E-02 -3.481906300335E+00 2.633742854600E+00 -2.601536416321E+00 2.924926383499E+00 5.949067929565E+00 -1.681139324225E+00 -8.416725397275E+00 8.141188778518E+00 -1.086565553323E+00 -1.263556906748E+03 4.317812094357E+02 -3.469522036886E+01 -4.673012886047E+02 2.011996991167E+00 -4.284066039837E-01 -2.347652356220E+00 -2.159414515932E+00 7.518067188966E-01 5.255064295219E+00 2.707824816254E+00 5.235309370610E-01 2.488280454268E+03
 -3.099121565050E-01 4.957216500348E-01 3.703936950018E-01 1.068170980525E+00 -5.594718080720E-01 7.731657727618E-01 -6.322047219034E-01 3.423997543064E-01 5.635234775461E-01 1.035886793664E+00 -7.602712858081E-02 3.248769381494E-02 -7.690404484833E-01 -2.461310458439E+00 1.183635858298E+00 5.531439159697E-01 2.174456288039E-01 3.799121118150E-02 9.671776957759E-02 -3.729866333588E-01 4.529584309029E-02 -8.291624415091E-01 1.054637691986E-01 -3.723614415454E-01 1.093715938780E+00 9.008729546721E-01 -8.250333970755E-01 -1.356029265805E+00 8.452125212949E-01 -5.300429639385E-01 4.834599347725E+02 -7.554245980453E+02 7.182459152365E+00 -4.669577788637E+01 -1.642527899173E+03 -3.100662427082E+00 -1.450898726123E+00 9.988002568451E-01 5.395254385080E-01 1.649346008598E+00 -7.320182453599E-01 -3.546256144536E-01 -1.537533782755E+02 2.750790767736E+03
 5.239979845544E-01 -1.130275583945E+00 -1.844499758468E+00 -4.017513997011E-02 1.983588063267E-01 -2.236459750841E+00 -6.342012081800E-01 -3.098940622171E-01 -9.447947407944E-01 8.477165729400E-01 -6.031368155845E-01 -7.698370365429E-02 -5.279841161636E-01 -3.948837820010E+00 -3.770057999200E+00 -7.313113432626E-02 1.211080163899E+00 1.340474886359E+00 2.423050952105E-01 5.883462003496E-01 -6.634486980134E-01 -7.220136146950E-01 1.004201941104E+00 1.808591454355E+00 6.670716947372E-01 1.788802124020E+00 1.266825763331E+00 -2.117079209377E+00 2.513207290823E+00 1.865173780123E-02 -2.868428979123E+01 9.029794852195E+00 -9.494225900165E+01 -3.932701547508E+00 -3.817980897570E+00 -7.900155560496E+01 8.587886987365E-01 -2.126717859224E+00 3.820003898863E+00 7.694375491045E-01 1.696605172952E+00 -8.672979037920E+00 7.734010384020E+01 1.929217830518E+01 2.464918275496E+02
 2.908751500978E-01 -4.471763130395E-01 -7.511993240942E-02 -4.738164082396E-01 4.829773567241E-01 -1.394745099585E-01 2.277881462235E-01 -1.302705667689E-01 1.296892885612E-01 -1.598813346755E-01 -1.061528145198E-01 1.450825309647E-01 3.491131429522E-01 1.602311364440E-01 -4.832858507327E-02 -1.985515914247E+01 3.497476590922E+01 -8.378678000934E-01 -1.157908023046E-02 1.741426772661E-01 -1.760772082736E-01 1.825536059434E-01 9.874896089381E-02 -2.134422115709E-01 -2.818349468608E-01 5.432691719183E-02 -2.062788698427E-01 9.402500562256E-02 1.771113745568E-01 -9.415619794264E-02 -1.209110770167E+03 -4.146295625315E+02 -1.746904458253E+01 4.728187492927E-01 -2.096880150967E+00 2.556727225335E-02 -1.179097155646E+03 4.296699594186E+02 -1.730284381436E+01 -4.671964556232E+02 -1.887311188522E+01 -3.460625973030E+00 -1.571112182006E+01 -3.319279474170E+01 -6.754569739662E-01 2.740195180904E+03
 -1.005805900936E-01 1.318631148343E-01 -3.545835415187E-01 8.342545608531E-02 -2.751194063634E-01 -4.052512544244E-01 1.914636806627E-01 7.982060661464E-02 -1.861493105985E-01 -1.995181767592E-01 7.314377658805E-02 -9.487247879621E-04 -1.653528890779E-01 1.013500684225E+00 -1.202775873760E+00 -3.261310408109E+01 5.806042336442E+01 -3.864770540867E-01 -2.438240190872E-04 -1.192924393509E-01 -1.858654276061E-01 3.217485681046E-01 -3.556866923079E-01 4.218251814625E-01 1.126918162095E-01 -4.622303738178E-01 3.365129619313E-01 9.047242830532E-01 -9.261024555004E-01 7.423757326703E-02 -4.235729643820E+02 -6.996697945733E+02 -4.715325034274E+00 -3.486940997496E+00 -1.924619721580E+00 -3.086143202731E+00 4.309365001710E+02 -7.210920518845E+02 1.000558786647E+01 -8.668964811824E+00 -1.469705916368E+03 2.785740896935E+00 4.236542404992E+01 6.082420069263E+01 2.916819134220E+00 -2.747589786995E+00 2.772450263431E+03
 1.966357725630E-01 -4.761520504888E-02 4.397343333451E+00 -1.226979224717E-02 -5.925480680999E-01 -8.748961494060E+00 -1.525027678832E-02 6.621080570324E-02 4.244372888211E-02 1.671782810005E-01 -2.103971685463E-01 -4.422529909136E-02 1.249987221269E-01 -3.589643568033E-01 5.477340763430E-01 -5.982572628922E-01 3.689930373601E-01 9.232582944386E+00 -1.114276338228E-01 4.729214143256E-02 1.343253120605E-02 -7.197610462811E-03 2.887428831363E-01 2.505905947282E-01 6.592173511831E-02 1.571963377551E-01 -2.219022965779E-01 -2.779410089939E-01 3.176024545873E-01 -8.855389292740E-02 -1.553320670473E+01 -4.113937033916E+00 -8.221932049967E+01 1.504077148252E+00 1.529415046939E+00 -1.090265866996E+01 -1.782799822443E+01 9.553584057956E+00 -8.059281604671E+01 -5.803938799770E+00 2.340532397245E+00 -8.144912417075E+01 -4.894025739316E+00 -1.814947250354E+00 1.203016868162E+01 3.871198553855E+01 -7.239370901481E+00 1.896774474722E+02
 2.940423752868E-01 -7.087395669677E-01 9.469818678616E-01 -5.560824856399E-02 5.172655641416E-01 1.552664775687E+00 -6.990188364256E-01 1.103066838726E-02 1.207580147257E+00 9.431937163977E-01 -3.672363129893E-01 4.029405667435E-01 -8.763070409643E-02 -3.937009983790E+00 3.134757394899E+00 2.324477847861E-01 7.847979742873E-01 -2.797809390438E-01 2.200571778788E-01 1.090396134839E-01 -7.237474612724E-02 -8.454758736929E-01 8.051192903203E-01 -1.383360657900E+00 6.718062876135E-01 1.771282899522E+00 -2.122724734718E+00 -2.512207007015E+00 2.535989110131E+00 -9.469116439339E-01 2.577698284002E+00 -3.561267785765E+00 -2.797970130964E+00 -1.426848538252E+03 -4.977246551126E+02 -2.742983401590E+01 -6.131656343338E-01 -6.987340369798E-01 8.104454067216E-01 -1.330577564995E+03 4.623574159697E+02 -1.151773459083E+01 2.756706325130E+01 -4.579786224884E+00 -5.025095273243E+00 4.142684227318E+01 7.962887256195E-01 1.008299409224E+00 3.052955993288E+03
 8.468535608539E-01 -1.554246807186E+00 7.896010127518E-01 -7.798370870750E-01 1.262670009084E+00 1.335438351975E+00 -5.047351254459E-01 -4.423870624786E-01 5.351799327861E-01 7.682776508019E-01 -6.395339303946E-01 3.104976068149E-01 5.724683702687E-01 -4.020236620779E+00 1.942112286920E+00 -4.619676039508E-01 9.413317213948E-01 -6.914171097294E-01 1.742887725963E-01 6.597675361317E-01 2.175507327116E-02 -9.335404713837E-01 1.465035336592E+00 -1.225301826474E+00 -1.472433190656E-02 2.066854064423E+00 -1.143650729448E+00 -2.805921572051E+00 3.532638071602E+00 -3.582694751012E-01 9.036185151147E-01 1.039790685151E+00 6.708521310891E-01 -4.894735989154E+02 -8.353224505553E+02 -9.370896928774E+00 6.929376369205E-01 -2.230516448326E+00 4.063796542242E-01 4.474509137383E+02 -7.528640775982E+02 2.439398330998E+00 -1.044950386451E+02 1.644412764486E+00 -7.508086533036E+00 7.269672155298E+01 8.079706370270E-01 -3.750677643410E-01 3.099527867735E+01 2.537148279551E+03
 5.257969556811E-02 -6.146836880003E-02 1.821605128911E-01 -5.743687702994E-02 2.846194094924E-01 5.063072282964E+00 6.215517066206E-02 6.382048491462E-03 -1.770661057508E-01 5.968209487532E-02 -1.305752122798E-02 -1.678855448877E-01 5.085906648850E-01 3.148988616750E-01 7.311857105754E-01 -3.831421767323E-01 -3.507441976501E-01 -1.590186723326E-01 -1.284652176075E-01 -1.510185063076E-02 2.727305342519E-01 -2.410597837654E-01 2.542432611832E-01 1.916502217919E-01 -3.163480139284E-01 -7.787666103150E-02 2.988629497908E-01 -1.922256207699E-01 2.722958900593E-01 5.149512477002E-02 1.348477146185E+00 1.093175125691E+00 -9.848585791333E+00 -2.819900934381E+01 -1.166373751687E+01 -7.019017147371E+01 -1.648660890054E-01 -1.767238354211E-01 4.899762139554E+00 -1.389171681626E+01 1.614900374674E+00 -7.970187621161E+01 5.625250816533E-01 -1.737681660444E-01 1.410060624132E+01 -2.482772519519E-01 1.111047235112E+00 9.533366658764E+00 4.745005918256E+01 1.962633914953E+01 1.527282121260E+02
 3.253809942191E-01 -5.270178445270E-01 3.808281353515E-01 -1.238573631400E+03 4.562297628176E+02 -1.167912736237E+01 -2.008729433673E-01 -5.625781657837E-02 5.978977838169E-01 3.878132309071E-01 -2.132293578527E-01 2.238093227313E-01 1.379404829488E-01 -1.888931009450E+00 1.186193489668E+00 4.097767194469E+01 -2.174763266634E-01 1.032361368365E-01 4.864652650826E-02 1.630549148129E-01 -1.863166199945E-01 -2.048705759859E+01 3.708363958531E+01 -1.043535538315E+00 1.039435108057E-01 8.796877246208E-01 -1.012385529974E+00 -1.279158221906E+00 1.363835821489E+00 -5.049619868486E-01 1.087182059131E+00 -6.392813138691E-01 -1.109096000245E+00 6.709430375012E+00 2.414378830553E+00 1.386216177536E+00 1.981642131170E-01 -7.929263103392E-01 9.903148866873E-02 -1.129565174537E+03 -3.786502340615E+02 -6.711430207815E+00 -8.550893335233E+00 -1.016887323152E+00 -2.311693935210E+00 3.523958524452E+01 5.418039735998E-01 2.367241814473E-01 -2.058054931012E+01 -3.638164462635E+01 -5.716106618151E-01 2.734167672841E+03
 8.504291303155E-02 -2.077678988547E-01 -1.838008297882E-02 4.658793964931E+02 -7.563644701038E+02 8.332836911471E+00 -2.364409982220E-02 -3.574572536817E-02 8.774644824846E-02 3.487146920881E-02 -7.659092898945E-02 1.478188344110E-01 3.864657266530E-02 -2.751490140656E-01 7.908205239201E-02 6.716647028538E+01 -8.284909521018E-01 4.590718104718E-01 4.114527604421E-02 5.917207601425E-02 -5.407899083482E-02 -3.306897791484E+01 6.011713071032E+01 -6.643287380094E-01 4.877871979625E-02 1.591649707693E-01 -1.910279090464E-01 -1.261485679610E-01 2.266545850698E-01 -4.685196191046E-02 5.733534617194E-02 5.875231396805E-01 -5.865569420638E-02 1.195391291908E+00 -1.241547921085E-01 4.748345860557E-01 9.862237292188E-02 -1.681826280098E-01 2.018762431621E-01 -3.816050804861E+02 -6.588975381123E+02 -1.009651607571E+00 -7.507176374688E-01 -1.408016463075E-01 -3.851433618690E-01 -6.374686715959E+01 6.199334161374E-01 -3.017908657333E-01 3.234225671503E+01 5.879750075857E+01 2.693394781551E-01 -2.433711544541E+01 2.818526262677E+03
 4.541204317757E-01 -1.085719482584E+00 3.950870129862E+00 -1.261892606467E+01 8.276680538487E+00 -8.420125009190E+01 -1.537565999875E-01 -4.976148974561E-01 -1.215837773468E+00 -3.265772736465E-02 -4.192898384121E-01 4.321158307590E+00 -1.927686376930E-02 -1.181667406993E+00 -2.408539364778E+00 -1.164910785428E+00 9.647338724238E-01 8.704665953876E+00 1.998841169418E-01 6.736947237669E-01 1.228691827766E-01 1.284170858025E-01 4.716549243905E-01 1.071277505495E+01 -6.554774258715E-03 7.835266573254E-01 1.964906792108E+00 -4.466027795472E-01 1.177319166818E+00 7.570919808677E-01 -7.775371477945E-01 2.062532532367E+00 3.559027076597E+00 5.779882485020E+00 -9.085587682542E-01 3.930432767639E+00 1.603923954730E+00 -1.021228883868E+00 -9.329496102667E+00 -7.723020323993E+00 1.693774263234E+00 -8.129315035701E+01 -3.084865077011E+00 4.020668001628E-01 1.556267509756E+00 -4.754048977470E-02 -3.371679900694E-01 8.063957765941E+00 -3.768179207980E+00 -2.781826890595E+00 1.062709452069E+01 2.123183546208E+01 -2.269452624131E+01 1.893266314805E+02